 Entering Gaussian System, Link 0=/usr/local/gaussian/2009-D.01/g09/g09
 Initial command:
 /usr/local/gaussian/2009-D.01/g09/l1.exe "/lustre/scratch/tmp/pbs.619716.achilles/Gau-17362.inp" -scrdir="/lustre/scratch/tmp/pbs.619716.achilles/"
 Entering Link 1 = /usr/local/gaussian/2009-D.01/g09/l1.exe PID=     17363.
  
 Copyright (c) 1988,1990,1992,1993,1995,1998,2003,2009,2013,
            Gaussian, Inc.  All Rights Reserved.
  
 This is part of the Gaussian(R) 09 program.  It is based on
 the Gaussian(R) 03 system (copyright 2003, Gaussian, Inc.),
 the Gaussian(R) 98 system (copyright 1998, Gaussian, Inc.),
 the Gaussian(R) 94 system (copyright 1995, Gaussian, Inc.),
 the Gaussian 92(TM) system (copyright 1992, Gaussian, Inc.),
 the Gaussian 90(TM) system (copyright 1990, Gaussian, Inc.),
 the Gaussian 88(TM) system (copyright 1988, Gaussian, Inc.),
 the Gaussian 86(TM) system (copyright 1986, Carnegie Mellon
 University), and the Gaussian 82(TM) system (copyright 1983,
 Carnegie Mellon University). Gaussian is a federally registered
 trademark of Gaussian, Inc.
  
 This software contains proprietary and confidential information,
 including trade secrets, belonging to Gaussian, Inc.
  
 This software is provided under written license and may be
 used, copied, transmitted, or stored only in accord with that
 written license.
  
 The following legend is applicable only to US Government
 contracts under FAR:
  
                    RESTRICTED RIGHTS LEGEND
  
 Use, reproduction and disclosure by the US Government is
 subject to restrictions as set forth in subparagraphs (a)
 and (c) of the Commercial Computer Software - Restricted
 Rights clause in FAR 52.227-19.
  
 Gaussian, Inc.
 340 Quinnipiac St., Bldg. 40, Wallingford CT 06492
  
  
 ---------------------------------------------------------------
 Warning -- This program may not be used in any manner that
 competes with the business of Gaussian, Inc. or will provide
 assistance to any competitor of Gaussian, Inc.  The licensee
 of this program is prohibited from giving any competitor of
 Gaussian, Inc. access to this program.  By using this program,
 the user acknowledges that Gaussian, Inc. is engaged in the
 business of creating and licensing software in the field of
 computational chemistry and represents and warrants to the
 licensee that it is not a competitor of Gaussian, Inc. and that
 it will not use this program in any manner prohibited above.
 ---------------------------------------------------------------
  

 Cite this work as:
 Gaussian 09, Revision D.01,
 M. J. Frisch, G. W. Trucks, H. B. Schlegel, G. E. Scuseria, 
 M. A. Robb, J. R. Cheeseman, G. Scalmani, V. Barone, B. Mennucci, 
 G. A. Petersson, H. Nakatsuji, M. Caricato, X. Li, H. P. Hratchian, 
 A. F. Izmaylov, J. Bloino, G. Zheng, J. L. Sonnenberg, M. Hada, 
 M. Ehara, K. Toyota, R. Fukuda, J. Hasegawa, M. Ishida, T. Nakajima, 
 Y. Honda, O. Kitao, H. Nakai, T. Vreven, J. A. Montgomery, Jr., 
 J. E. Peralta, F. Ogliaro, M. Bearpark, J. J. Heyd, E. Brothers, 
 K. N. Kudin, V. N. Staroverov, T. Keith, R. Kobayashi, J. Normand, 
 K. Raghavachari, A. Rendell, J. C. Burant, S. S. Iyengar, J. Tomasi, 
 M. Cossi, N. Rega, J. M. Millam, M. Klene, J. E. Knox, J. B. Cross, 
 V. Bakken, C. Adamo, J. Jaramillo, R. Gomperts, R. E. Stratmann, 
 O. Yazyev, A. J. Austin, R. Cammi, C. Pomelli, J. W. Ochterski, 
 R. L. Martin, K. Morokuma, V. G. Zakrzewski, G. A. Voth, 
 P. Salvador, J. J. Dannenberg, S. Dapprich, A. D. Daniels, 
 O. Farkas, J. B. Foresman, J. V. Ortiz, J. Cioslowski, 
 and D. J. Fox, Gaussian, Inc., Wallingford CT, 2013.
 
 ******************************************
 Gaussian 09:  ES64L-G09RevD.01 24-Apr-2013
                26-Oct-2015 
 ******************************************
 %nproc=12
 Will use up to   12 processors via shared memory.
 %mem=56000MB
 %chk=CH3CH2CH2Cl_MP2_aug-cc-pVDZ_opt_freq_528K.chk
 -----------------------------------------------------
 #p rmp2/aug-cc-pVDZ opt freq Temperature=528.5 nosymm
 -----------------------------------------------------
 1/18=20,19=15,38=1,112=528500/1,3;
 2/9=110,12=2,15=1,17=6,18=5,40=1/2;
 3/5=16,7=10,11=1,16=1,25=1,30=1,71=1,116=1/1,2,3;
 4//1;
 5/5=2,38=5/2;
 8/6=4,10=1/1;
 9/15=2,16=-3/6;
 10/5=1,31=1/2;
 6/7=2,8=2,9=2,10=2/1;
 7/12=2,30=1/1,2,3,16;
 1/18=20,19=15/3(2);
 2/9=110,15=1/2;
 99//99;
 2/9=110,15=1/2;
 3/5=16,7=10,11=1,16=1,25=1,30=1,71=1,116=1/1,2,3;
 4/5=5,16=3,69=1/1;
 5/5=2,38=5/2;
 8/6=4,10=1/1;
 9/15=2,16=-3/6;
 10/5=1,31=1/2;
 7/12=2,30=1/1,2,3,16;
 1/18=20,19=15/3(-8);
 2/9=110,15=1/2;
 6/7=2,8=2,9=2,10=2/1;
 99//99;
 Leave Link    1 at Mon Oct 26 20:20:03 2015, MaxMem=  7340032000 cpu:         0.7
 (Enter /usr/local/gaussian/2009-D.01/g09/l101.exe)
 ------------------------------------------
 CH3CH2CH2Cl - optimization and frequencies
 ------------------------------------------
 Symbolic Z-matrix:
 Charge =  0 Multiplicity = 1
 C                    -2.38206  -0.21469   0. 
 C                    -0.90591  -0.63396   0. 
 C                     0.        0.58994   0. 
 Cl                    1.74596   0.11518   0. 
 H                    -3.03881  -1.09779   0. 
 H                    -2.62496   0.38605   0.89157 
 H                    -2.62496   0.38605  -0.89157 
 H                    -0.68035  -1.2478    0.88696 
 H                    -0.68035  -1.2478   -0.88696 
 H                    -0.15206   1.20771  -0.89661 
 H                    -0.15206   1.20771   0.89661 
 
 NAtoms=     11 NQM=       11 NQMF=       0 NMMI=      0 NMMIF=      0
                NMic=       0 NMicF=      0.
                    Isotopes and Nuclear Properties:
 (Nuclear quadrupole moments (NQMom) in fm**2, nuclear magnetic moments (NMagM)
  in nuclear magnetons)

  Atom         1           2           3           4           5           6           7           8           9          10
 IAtWgt=          12          12          12          35           1           1           1           1           1           1
 AtmWgt=  12.0000000  12.0000000  12.0000000  34.9688527   1.0078250   1.0078250   1.0078250   1.0078250   1.0078250   1.0078250
 NucSpn=           0           0           0           3           1           1           1           1           1           1
 AtZEff=   0.0000000   0.0000000   0.0000000   0.0000000   0.0000000   0.0000000   0.0000000   0.0000000   0.0000000   0.0000000
 NQMom=    0.0000000   0.0000000   0.0000000  -8.1650000   0.0000000   0.0000000   0.0000000   0.0000000   0.0000000   0.0000000
 NMagM=    0.0000000   0.0000000   0.0000000   0.8218740   2.7928460   2.7928460   2.7928460   2.7928460   2.7928460   2.7928460
 AtZNuc=   6.0000000   6.0000000   6.0000000  17.0000000   1.0000000   1.0000000   1.0000000   1.0000000   1.0000000   1.0000000

  Atom        11
 IAtWgt=           1
 AtmWgt=   1.0078250
 NucSpn=           1
 AtZEff=   0.0000000
 NQMom=    0.0000000
 NMagM=    2.7928460
 AtZNuc=   1.0000000
 Leave Link  101 at Mon Oct 26 20:20:04 2015, MaxMem=  7340032000 cpu:         4.1
 (Enter /usr/local/gaussian/2009-D.01/g09/l103.exe)

 GradGradGradGradGradGradGradGradGradGradGradGradGradGradGradGradGradGrad
 Berny optimization.
 Initialization pass.
                           ----------------------------
                           !    Initial Parameters    !
                           ! (Angstroms and Degrees)  !
 --------------------------                            --------------------------
 ! Name  Definition              Value          Derivative Info.                !
 --------------------------------------------------------------------------------
 ! R1    R(1,2)                  1.5345         estimate D2E/DX2                !
 ! R2    R(1,5)                  1.1005         estimate D2E/DX2                !
 ! R3    R(1,6)                  1.1022         estimate D2E/DX2                !
 ! R4    R(1,7)                  1.1022         estimate D2E/DX2                !
 ! R5    R(2,3)                  1.5227         estimate D2E/DX2                !
 ! R6    R(2,8)                  1.102          estimate D2E/DX2                !
 ! R7    R(2,9)                  1.102          estimate D2E/DX2                !
 ! R8    R(3,4)                  1.8094         estimate D2E/DX2                !
 ! R9    R(3,10)                 1.0994         estimate D2E/DX2                !
 ! R10   R(3,11)                 1.0994         estimate D2E/DX2                !
 ! A1    A(2,1,5)              110.7815         estimate D2E/DX2                !
 ! A2    A(2,1,6)              111.1564         estimate D2E/DX2                !
 ! A3    A(2,1,7)              111.1564         estimate D2E/DX2                !
 ! A4    A(5,1,6)              107.8092         estimate D2E/DX2                !
 ! A5    A(5,1,7)              107.8092         estimate D2E/DX2                !
 ! A6    A(6,1,7)              107.9815         estimate D2E/DX2                !
 ! A7    A(1,2,3)              110.652          estimate D2E/DX2                !
 ! A8    A(1,2,8)              110.4317         estimate D2E/DX2                !
 ! A9    A(1,2,9)              110.4317         estimate D2E/DX2                !
 ! A10   A(3,2,8)              109.0233         estimate D2E/DX2                !
 ! A11   A(3,2,9)              109.0233         estimate D2E/DX2                !
 ! A12   A(8,2,9)              107.1959         estimate D2E/DX2                !
 ! A13   A(2,3,4)              111.2961         estimate D2E/DX2                !
 ! A14   A(2,3,10)             111.6767         estimate D2E/DX2                !
 ! A15   A(2,3,11)             111.6767         estimate D2E/DX2                !
 ! A16   A(4,3,10)             106.3143         estimate D2E/DX2                !
 ! A17   A(4,3,11)             106.3143         estimate D2E/DX2                !
 ! A18   A(10,3,11)            109.283          estimate D2E/DX2                !
 ! D1    D(5,1,2,3)            180.0            estimate D2E/DX2                !
 ! D2    D(5,1,2,8)            -59.1941         estimate D2E/DX2                !
 ! D3    D(5,1,2,9)             59.1941         estimate D2E/DX2                !
 ! D4    D(6,1,2,3)            -60.1562         estimate D2E/DX2                !
 ! D5    D(6,1,2,8)             60.6498         estimate D2E/DX2                !
 ! D6    D(6,1,2,9)            179.0379         estimate D2E/DX2                !
 ! D7    D(7,1,2,3)             60.1562         estimate D2E/DX2                !
 ! D8    D(7,1,2,8)           -179.0379         estimate D2E/DX2                !
 ! D9    D(7,1,2,9)            -60.6498         estimate D2E/DX2                !
 ! D10   D(1,2,3,4)            180.0            estimate D2E/DX2                !
 ! D11   D(1,2,3,10)           -61.3553         estimate D2E/DX2                !
 ! D12   D(1,2,3,11)            61.3553         estimate D2E/DX2                !
 ! D13   D(8,2,3,4)             58.3609         estimate D2E/DX2                !
 ! D14   D(8,2,3,10)           177.0056         estimate D2E/DX2                !
 ! D15   D(8,2,3,11)           -60.2838         estimate D2E/DX2                !
 ! D16   D(9,2,3,4)            -58.3609         estimate D2E/DX2                !
 ! D17   D(9,2,3,10)            60.2838         estimate D2E/DX2                !
 ! D18   D(9,2,3,11)          -177.0056         estimate D2E/DX2                !
 --------------------------------------------------------------------------------
 Trust Radius=3.00D-01 FncErr=1.00D-07 GrdErr=1.00D-07
 Number of steps in this run=     56 maximum allowed number of steps=    100.
 GradGradGradGradGradGradGradGradGradGradGradGradGradGradGradGradGradGrad

 Leave Link  103 at Mon Oct 26 20:20:04 2015, MaxMem=  7340032000 cpu:         0.1
 (Enter /usr/local/gaussian/2009-D.01/g09/l202.exe)
                          Input orientation:                          
 ---------------------------------------------------------------------
 Center     Atomic      Atomic             Coordinates (Angstroms)
 Number     Number       Type             X           Y           Z
 ---------------------------------------------------------------------
      1          6           0       -2.382058   -0.214688    0.000000
      2          6           0       -0.905909   -0.633960    0.000000
      3          6           0        0.000000    0.589942    0.000000
      4         17           0        1.745961    0.115182    0.000000
      5          1           0       -3.038810   -1.097791    0.000000
      6          1           0       -2.624955    0.386050    0.891573
      7          1           0       -2.624955    0.386050   -0.891573
      8          1           0       -0.680351   -1.247800    0.886956
      9          1           0       -0.680351   -1.247800   -0.886956
     10          1           0       -0.152058    1.207714   -0.896610
     11          1           0       -0.152058    1.207714    0.896610
 ---------------------------------------------------------------------
                    Distance matrix (angstroms):
                    1          2          3          4          5
     1  C    0.000000
     2  C    1.534537   0.000000
     3  C    2.514285   1.522697   0.000000
     4  Cl   4.141178   2.755654   1.809358   0.000000
     5  H    1.100543   2.182752   3.476034   4.936126   0.000000
     6  H    1.102174   2.188708   2.779724   4.469136   1.779877
     7  H    1.102174   2.188708   2.779724   4.469136   1.779877
     8  H    2.179408   1.101983   2.151015   2.920856   2.524187
     9  H    2.179408   1.101983   2.151015   2.920856   2.524187
    10  H    2.792855   2.182651   1.099397   2.366434   3.801658
    11  H    2.792855   2.182651   1.099397   2.366434   3.801658
                    6          7          8          9         10
     6  H    0.000000
     7  H    1.783146   0.000000
     8  H    2.539876   3.100664   0.000000
     9  H    3.100664   2.539876   1.773912   0.000000
    10  H    3.160372   2.605835   3.080544   2.511720   0.000000
    11  H    2.605835   3.160372   2.511720   3.080544   1.793220
                   11
    11  H    0.000000
 Symmetry turned off by external request.
 Stoichiometry    C3H7Cl
 Framework group  CS[SG(C3HCl),X(H6)]
 Deg. of freedom    16
 Full point group                 CS      NOp   2
 Rotational constants (GHZ):     25.5958899      2.3563527      2.2500994
 Leave Link  202 at Mon Oct 26 20:20:04 2015, MaxMem=  7340032000 cpu:         0.1
 (Enter /usr/local/gaussian/2009-D.01/g09/l301.exe)
 Standard basis: Aug-CC-pVDZ (5D, 7F)
 Ernie: Thresh=  0.10000D-02 Tol=  0.10000D-05 Strict=F.
 Ernie:  16 primitive shells out of 177 were deleted.
   159 basis functions,   287 primitive gaussians,   167 cartesian basis functions
    21 alpha electrons       21 beta electrons
       nuclear repulsion energy       157.8004745548 Hartrees.
 IExCor=    0 DFT=F Ex=HF Corr=None ExCW=0 ScaHFX=  1.000000
 ScaDFX=  1.000000  1.000000  1.000000  1.000000 ScalE2=  1.000000  1.000000
 IRadAn=      0 IRanWt=     -1 IRanGd=            0 ICorTp=0 IEmpDi=  4
 NAtoms=   11 NActive=   11 NUniq=   11 SFac= 1.00D+00 NAtFMM=   60 NAOKFM=F Big=F
 Integral buffers will be    131072 words long.
 Raffenetti 1 integral format.
 Two-electron integral symmetry is turned off.
 Leave Link  301 at Mon Oct 26 20:20:04 2015, MaxMem=  7340032000 cpu:         0.4
 (Enter /usr/local/gaussian/2009-D.01/g09/l302.exe)
 NPDir=0 NMtPBC=     1 NCelOv=     1 NCel=       1 NClECP=     1 NCelD=      1
         NCelK=      1 NCelE2=     1 NClLst=     1 CellRange=     0.0.
 One-electron integrals computed using PRISM.
 NBasis=   159 RedAO= T EigKep=  5.25D-05  NBF=   159
 NBsUse=   159 1.00D-06 EigRej= -1.00D+00 NBFU=   159
 Leave Link  302 at Mon Oct 26 20:20:04 2015, MaxMem=  7340032000 cpu:         1.8
 (Enter /usr/local/gaussian/2009-D.01/g09/l303.exe)
 DipDrv:  MaxL=1.
 Leave Link  303 at Mon Oct 26 20:20:04 2015, MaxMem=  7340032000 cpu:         0.3
 (Enter /usr/local/gaussian/2009-D.01/g09/l401.exe)
 ExpMin= 2.97D-02 ExpMax= 1.28D+05 ExpMxC= 1.24D+03 IAcc=3 IRadAn=         5 AccDes= 0.00D+00
 Harris functional with IExCor=  205 and IRadAn=       5 diagonalized for initial guess.
 HarFok:  IExCor=  205 AccDes= 0.00D+00 IRadAn=         5 IDoV= 1 UseB2=F ITyADJ=14
 ICtDFT=  3500011 ScaDFX=  1.000000  1.000000  1.000000  1.000000
 FoFCou: FMM=F IPFlag=           0 FMFlag=      100000 FMFlg1=           0
         NFxFlg=           0 DoJE=T BraDBF=F KetDBF=T FulRan=T
         wScrn=  0.000000 ICntrl=     500 IOpCl=  0 I1Cent=   200000004 NGrid=           0
         NMat0=    1 NMatS0=      1 NMatT0=    0 NMatD0=    1 NMtDS0=    0 NMtDT0=    0
 Symmetry not used in FoFCou.
 Harris En= -577.049425931717    
 JPrj=0 DoOrth=F DoCkMO=F.
 Leave Link  401 at Mon Oct 26 20:20:04 2015, MaxMem=  7340032000 cpu:         4.8
 (Enter /usr/local/gaussian/2009-D.01/g09/l502.exe)
 Closed shell SCF:
 Using DIIS extrapolation, IDIIS=  1040.
 Two-electron integral symmetry not used.
 Keep R1 ints in memory in canonical form, NReq=83381537.
 IVT=      105245 IEndB=      105245 NGot=  7340032000 MDV=  7259021196
 LenX=  7259021196 LenY=  7258992866
 Requested convergence on RMS density matrix=1.00D-08 within 128 cycles.
 Requested convergence on MAX density matrix=1.00D-06.
 Requested convergence on             energy=1.00D-06.
 No special actions if energy rises.
 FoFCou: FMM=F IPFlag=           0 FMFlag=           0 FMFlg1=           0
         NFxFlg=           0 DoJE=F BraDBF=F KetDBF=F FulRan=T
         wScrn=  0.000000 ICntrl=     600 IOpCl=  0 I1Cent=           0 NGrid=           0
         NMat0=    1 NMatS0=  12720 NMatT0=    0 NMatD0=    1 NMtDS0=    0 NMtDT0=    0
 Symmetry not used in FoFCou.

 Cycle   1  Pass 1  IDiag  1:
 E= -576.990040426087    
 DIIS: error= 2.60D-02 at cycle   1 NSaved=   1.
 NSaved= 1 IEnMin= 1 EnMin= -576.990040426087     IErMin= 1 ErrMin= 2.60D-02
 ErrMax= 2.60D-02  0.00D+00 EMaxC= 1.00D-01 BMatC= 2.62D-01 BMatP= 2.62D-01
 IDIUse=3 WtCom= 7.40D-01 WtEn= 2.60D-01
 Coeff-Com:  0.100D+01
 Coeff-En:   0.100D+01
 Coeff:      0.100D+01
 Gap=     0.649 Goal=   None    Shift=    0.000
 GapD=    0.649 DampG=2.000 DampE=0.500 DampFc=1.0000 IDamp=-1.
 RMSDP=9.28D-03 MaxDP=1.54D-01              OVMax= 1.25D-01

 Cycle   2  Pass 1  IDiag  1:
 E= -577.155740647986     Delta-E=       -0.165700221898 Rises=F Damp=F
 DIIS: error= 1.70D-02 at cycle   2 NSaved=   2.
 NSaved= 2 IEnMin= 2 EnMin= -577.155740647986     IErMin= 2 ErrMin= 1.70D-02
 ErrMax= 1.70D-02  0.00D+00 EMaxC= 1.00D-01 BMatC= 4.55D-02 BMatP= 2.62D-01
 IDIUse=3 WtCom= 8.30D-01 WtEn= 1.70D-01
 Coeff-Com:  0.254D+00 0.746D+00
 Coeff-En:   0.000D+00 0.100D+01
 Coeff:      0.211D+00 0.789D+00
 Gap=     0.557 Goal=   None    Shift=    0.000
 RMSDP=1.88D-03 MaxDP=3.27D-02 DE=-1.66D-01 OVMax= 6.07D-02

 Cycle   3  Pass 1  IDiag  1:
 E= -577.200628434424     Delta-E=       -0.044887786438 Rises=F Damp=F
 DIIS: error= 3.41D-03 at cycle   3 NSaved=   3.
 NSaved= 3 IEnMin= 3 EnMin= -577.200628434424     IErMin= 3 ErrMin= 3.41D-03
 ErrMax= 3.41D-03  0.00D+00 EMaxC= 1.00D-01 BMatC= 2.35D-03 BMatP= 4.55D-02
 IDIUse=3 WtCom= 9.66D-01 WtEn= 3.41D-02
 Coeff-Com: -0.287D-01 0.134D+00 0.895D+00
 Coeff-En:   0.000D+00 0.000D+00 0.100D+01
 Coeff:     -0.277D-01 0.129D+00 0.898D+00
 Gap=     0.465 Goal=   None    Shift=    0.000
 RMSDP=4.83D-04 MaxDP=9.66D-03 DE=-4.49D-02 OVMax= 1.29D-02

 Cycle   4  Pass 1  IDiag  1:
 E= -577.203377562035     Delta-E=       -0.002749127611 Rises=F Damp=F
 DIIS: error= 6.15D-04 at cycle   4 NSaved=   4.
 NSaved= 4 IEnMin= 4 EnMin= -577.203377562035     IErMin= 4 ErrMin= 6.15D-04
 ErrMax= 6.15D-04  0.00D+00 EMaxC= 1.00D-01 BMatC= 6.84D-05 BMatP= 2.35D-03
 IDIUse=3 WtCom= 9.94D-01 WtEn= 6.15D-03
 Coeff-Com: -0.770D-02-0.864D-02 0.870D-01 0.929D+00
 Coeff-En:   0.000D+00 0.000D+00 0.000D+00 0.100D+01
 Coeff:     -0.765D-02-0.859D-02 0.864D-01 0.930D+00
 Gap=     0.462 Goal=   None    Shift=    0.000
 RMSDP=9.40D-05 MaxDP=1.53D-03 DE=-2.75D-03 OVMax= 2.36D-03

 Cycle   5  Pass 1  IDiag  1:
 E= -577.203478522015     Delta-E=       -0.000100959980 Rises=F Damp=F
 DIIS: error= 2.78D-04 at cycle   5 NSaved=   5.
 NSaved= 5 IEnMin= 5 EnMin= -577.203478522015     IErMin= 5 ErrMin= 2.78D-04
 ErrMax= 2.78D-04  0.00D+00 EMaxC= 1.00D-01 BMatC= 7.93D-06 BMatP= 6.84D-05
 IDIUse=3 WtCom= 9.97D-01 WtEn= 2.78D-03
 Coeff-Com:  0.214D-02-0.182D-01-0.918D-01 0.116D+00 0.991D+00
 Coeff-En:   0.000D+00 0.000D+00 0.000D+00 0.000D+00 0.100D+01
 Coeff:      0.213D-02-0.181D-01-0.915D-01 0.116D+00 0.991D+00
 Gap=     0.462 Goal=   None    Shift=    0.000
 RMSDP=4.09D-05 MaxDP=8.43D-04 DE=-1.01D-04 OVMax= 1.54D-03

 Cycle   6  Pass 1  IDiag  1:
 E= -577.203494107356     Delta-E=       -0.000015585341 Rises=F Damp=F
 DIIS: error= 3.38D-05 at cycle   6 NSaved=   6.
 NSaved= 6 IEnMin= 6 EnMin= -577.203494107356     IErMin= 6 ErrMin= 3.38D-05
 ErrMax= 3.38D-05  0.00D+00 EMaxC= 1.00D-01 BMatC= 3.32D-07 BMatP= 7.93D-06
 IDIUse=1 WtCom= 1.00D+00 WtEn= 0.00D+00
 Coeff-Com:  0.431D-03-0.714D-03-0.784D-02-0.479D-01 0.250D-01 0.103D+01
 Coeff:      0.431D-03-0.714D-03-0.784D-02-0.479D-01 0.250D-01 0.103D+01
 Gap=     0.462 Goal=   None    Shift=    0.000
 RMSDP=1.03D-05 MaxDP=2.23D-04 DE=-1.56D-05 OVMax= 2.92D-04

 Cycle   7  Pass 1  IDiag  1:
 E= -577.203494904734     Delta-E=       -0.000000797378 Rises=F Damp=F
 DIIS: error= 1.28D-05 at cycle   7 NSaved=   7.
 NSaved= 7 IEnMin= 7 EnMin= -577.203494904734     IErMin= 7 ErrMin= 1.28D-05
 ErrMax= 1.28D-05  0.00D+00 EMaxC= 1.00D-01 BMatC= 2.65D-08 BMatP= 3.32D-07
 IDIUse=1 WtCom= 1.00D+00 WtEn= 0.00D+00
 Coeff-Com: -0.119D-03 0.107D-02 0.586D-02-0.443D-02-0.577D-01-0.829D-01
 Coeff-Com:  0.114D+01
 Coeff:     -0.119D-03 0.107D-02 0.586D-02-0.443D-02-0.577D-01-0.829D-01
 Coeff:      0.114D+01
 Gap=     0.462 Goal=   None    Shift=    0.000
 RMSDP=3.44D-06 MaxDP=7.30D-05 DE=-7.97D-07 OVMax= 1.22D-04

 Cycle   8  Pass 1  IDiag  1:
 E= -577.203494985684     Delta-E=       -0.000000080950 Rises=F Damp=F
 DIIS: error= 4.07D-06 at cycle   8 NSaved=   8.
 NSaved= 8 IEnMin= 8 EnMin= -577.203494985684     IErMin= 8 ErrMin= 4.07D-06
 ErrMax= 4.07D-06  0.00D+00 EMaxC= 1.00D-01 BMatC= 3.19D-09 BMatP= 2.65D-08
 IDIUse=1 WtCom= 1.00D+00 WtEn= 0.00D+00
 Coeff-Com: -0.544D-04 0.887D-04 0.102D-02 0.467D-02-0.135D-02-0.113D+00
 Coeff-Com: -0.266D-03 0.111D+01
 Coeff:     -0.544D-04 0.887D-04 0.102D-02 0.467D-02-0.135D-02-0.113D+00
 Coeff:     -0.266D-03 0.111D+01
 Gap=     0.462 Goal=   None    Shift=    0.000
 RMSDP=1.33D-06 MaxDP=2.71D-05 DE=-8.10D-08 OVMax= 4.81D-05

 Cycle   9  Pass 1  IDiag  1:
 E= -577.203494995300     Delta-E=       -0.000000009616 Rises=F Damp=F
 DIIS: error= 9.29D-07 at cycle   9 NSaved=   9.
 NSaved= 9 IEnMin= 9 EnMin= -577.203494995300     IErMin= 9 ErrMin= 9.29D-07
 ErrMax= 9.29D-07  0.00D+00 EMaxC= 1.00D-01 BMatC= 2.01D-10 BMatP= 3.19D-09
 IDIUse=1 WtCom= 1.00D+00 WtEn= 0.00D+00
 Coeff-Com:  0.706D-05-0.731D-04-0.408D-03-0.189D-03 0.487D-02 0.129D-01
 Coeff-Com: -0.957D-01-0.625D-01 0.114D+01
 Coeff:      0.706D-05-0.731D-04-0.408D-03-0.189D-03 0.487D-02 0.129D-01
 Coeff:     -0.957D-01-0.625D-01 0.114D+01
 Gap=     0.462 Goal=   None    Shift=    0.000
 RMSDP=3.91D-07 MaxDP=8.32D-06 DE=-9.62D-09 OVMax= 1.55D-05

 Cycle  10  Pass 1  IDiag  1:
 E= -577.203494995947     Delta-E=       -0.000000000647 Rises=F Damp=F
 DIIS: error= 2.21D-07 at cycle  10 NSaved=  10.
 NSaved=10 IEnMin=10 EnMin= -577.203494995947     IErMin=10 ErrMin= 2.21D-07
 ErrMax= 2.21D-07  0.00D+00 EMaxC= 1.00D-01 BMatC= 1.24D-11 BMatP= 2.01D-10
 IDIUse=1 WtCom= 1.00D+00 WtEn= 0.00D+00
 Coeff-Com:  0.416D-05-0.652D-05-0.770D-04-0.443D-03 0.270D-03 0.860D-02
 Coeff-Com: -0.202D-02-0.815D-01 0.472D-01 0.103D+01
 Coeff:      0.416D-05-0.652D-05-0.770D-04-0.443D-03 0.270D-03 0.860D-02
 Coeff:     -0.202D-02-0.815D-01 0.472D-01 0.103D+01
 Gap=     0.462 Goal=   None    Shift=    0.000
 RMSDP=9.40D-08 MaxDP=1.99D-06 DE=-6.47D-10 OVMax= 2.47D-06

 Cycle  11  Pass 1  IDiag  1:
 E= -577.203494995976     Delta-E=       -0.000000000029 Rises=F Damp=F
 DIIS: error= 4.07D-08 at cycle  11 NSaved=  11.
 NSaved=11 IEnMin=11 EnMin= -577.203494995976     IErMin=11 ErrMin= 4.07D-08
 ErrMax= 4.07D-08  0.00D+00 EMaxC= 1.00D-01 BMatC= 4.76D-13 BMatP= 1.24D-11
 IDIUse=1 WtCom= 1.00D+00 WtEn= 0.00D+00
 Coeff-Com: -0.682D-06 0.537D-05 0.315D-04 0.606D-05-0.315D-03-0.882D-03
 Coeff-Com:  0.645D-02 0.226D-02-0.663D-01 0.289D-01 0.103D+01
 Coeff:     -0.682D-06 0.537D-05 0.315D-04 0.606D-05-0.315D-03-0.882D-03
 Coeff:      0.645D-02 0.226D-02-0.663D-01 0.289D-01 0.103D+01
 Gap=     0.462 Goal=   None    Shift=    0.000
 RMSDP=2.20D-08 MaxDP=5.10D-07 DE=-2.85D-11 OVMax= 4.16D-07

 Cycle  12  Pass 1  IDiag  1:
 E= -577.203494995968     Delta-E=        0.000000000008 Rises=F Damp=F
 DIIS: error= 1.04D-08 at cycle  12 NSaved=  12.
 NSaved=12 IEnMin=11 EnMin= -577.203494995976     IErMin=12 ErrMin= 1.04D-08
 ErrMax= 1.04D-08  0.00D+00 EMaxC= 1.00D-01 BMatC= 2.40D-14 BMatP= 4.76D-13
 IDIUse=1 WtCom= 1.00D+00 WtEn= 0.00D+00
 Coeff-Com: -0.300D-07-0.613D-06-0.236D-05 0.199D-04 0.421D-04-0.251D-03
 Coeff-Com: -0.888D-03 0.318D-02 0.768D-02-0.511D-01-0.147D+00 0.119D+01
 Coeff:     -0.300D-07-0.613D-06-0.236D-05 0.199D-04 0.421D-04-0.251D-03
 Coeff:     -0.888D-03 0.318D-02 0.768D-02-0.511D-01-0.147D+00 0.119D+01
 Gap=     0.462 Goal=   None    Shift=    0.000
 RMSDP=4.44D-09 MaxDP=8.47D-08 DE= 7.84D-12 OVMax= 1.02D-07

 SCF Done:  E(RHF) =  -577.203494996     A.U. after   12 cycles
            NFock= 12  Conv=0.44D-08     -V/T= 2.0004
 KE= 5.769493008166D+02 PE=-1.683265200943D+03 EE= 3.713119305754D+02
 Leave Link  502 at Mon Oct 26 20:20:07 2015, MaxMem=  7340032000 cpu:        15.9
 (Enter /usr/local/gaussian/2009-D.01/g09/l801.exe)
 ExpMin= 2.97D-02 ExpMax= 1.28D+05 ExpMxC= 1.24D+03 IAcc=3 IRadAn=         5 AccDes= 0.00D+00
 HarFok:  IExCor=  205 AccDes= 0.00D+00 IRadAn=         5 IDoV=-2 UseB2=F ITyADJ=14
 ICtDFT= 12500011 ScaDFX=  1.000000  1.000000  1.000000  1.000000
 Largest valence mixing into a core orbital is  2.90D-04
 Largest core mixing into a valence orbital is  9.29D-05
 Range of M.O.s used for correlation:     9   159
 NBasis=   159 NAE=    21 NBE=    21 NFC=     8 NFV=     0
 NROrb=    151 NOA=    13 NOB=    13 NVA=   138 NVB=   138

 **** Warning!!: The largest alpha MO coefficient is  0.34660469D+02

 Leave Link  801 at Mon Oct 26 20:20:07 2015, MaxMem=  7340032000 cpu:         0.9
 (Enter /usr/local/gaussian/2009-D.01/g09/l906.exe)
 Frozen-core derivative calculation, NFC=   8 NFV=   0.
 FulOut=F Deriv=T AODrv=T NAtomX=    11
   MMem=        3094  MDisk=          13 MDiskD=          13
  W3Min=      557613 MinDsk=      876316 NBas6D=         167
 NBas2D=       14229    NTT=       14028    LW2=     2040000
    MDV=  7339637403 MDiskM=      610249 NBas2p=       14196
 Fully direct method using O(ONN) memory.
 IMap=   1   2   3   4   5   6   7   8   9  10  11  12  13  14  15  16  17  18  19  20
 IMap=  21
 JobTyp=1 Pass  1:  I=   9 to  21 NPSUse= 12 ParTrn=T ParDer=T DoDerP=T.
 Spin components of T(2) and E(2):
     alpha-alpha T2 =       0.2710654662D-01 E2=     -0.7115219474D-01
     alpha-beta  T2 =       0.1626318560D+00 E2=     -0.4591271688D+00
     beta-beta   T2 =       0.2710654662D-01 E2=     -0.7115219474D-01
 The integrals were generated   1 times.
 ANorm=    0.1103106953D+01
 E2 =    -0.6014315583D+00 EUMP2 =    -0.57780492655424D+03
 Leave Link  906 at Mon Oct 26 20:20:15 2015, MaxMem=  7340032000 cpu:        94.1
 (Enter /usr/local/gaussian/2009-D.01/g09/l1002.exe)
 Minotr:  Closed shell wavefunction.
          Computing MP2/KS-MP2 derivatives.
          Using Z-Vector for PSCF gradient.
          Skipping F1 and S1 gradient terms here.
          IDoAtm=11111111111
          Frozen-core window.
          Direct CPHF calculation.
          Differentiating once with respect to electric field.
                with respect to dipole field.
          Differentiating once with respect to nuclear coordinates.
          Requested convergence is 1.0D-10 RMS, and 1.0D-09 maximum.
          NewPWx=F KeepS1=T KeepF1=T KeepIn=T MapXYZ=F SortEE=F KeepMc=T.
          MDV=    7340031735 using IRadAn=       0.
 Keep R1 ints in memory in canonical form, NReq=83277870.
 FoFCou: FMM=F IPFlag=           0 FMFlag=           0 FMFlg1=           0
         NFxFlg=           0 DoJE=F BraDBF=F KetDBF=F FulRan=T
         wScrn=  0.000000 ICntrl=     600 IOpCl=  0 I1Cent=           0 NGrid=           0
         NMat0=    1 NMatS0=  12720 NMatT0=    0 NMatD0=    1 NMtDS0=    0 NMtDT0=    0
 Symmetry not used in FoFCou.
          Solving linear equations separately, MaxMat=       0.
          There are     1 degrees of freedom in the 1st order CPHF.  IDoFFX=0 NUNeed=     1.
 LinEq1:  Iter=  0 NonCon=     1 RMS=2.83D-03 Max=2.80D-02 NDo=     1
 AX will form     1 AO Fock derivatives at one time.
 LinEq1:  Iter=  1 NonCon=     1 RMS=6.28D-04 Max=7.61D-03 NDo=     1
 LinEq1:  Iter=  2 NonCon=     1 RMS=1.88D-04 Max=2.05D-03 NDo=     1
 LinEq1:  Iter=  3 NonCon=     1 RMS=3.60D-05 Max=2.79D-04 NDo=     1
 LinEq1:  Iter=  4 NonCon=     1 RMS=1.07D-05 Max=1.13D-04 NDo=     1
 LinEq1:  Iter=  5 NonCon=     1 RMS=2.75D-06 Max=3.16D-05 NDo=     1
 LinEq1:  Iter=  6 NonCon=     1 RMS=8.14D-07 Max=1.11D-05 NDo=     1
 LinEq1:  Iter=  7 NonCon=     1 RMS=1.95D-07 Max=1.58D-06 NDo=     1
 LinEq1:  Iter=  8 NonCon=     1 RMS=4.80D-08 Max=4.65D-07 NDo=     1
 LinEq1:  Iter=  9 NonCon=     1 RMS=1.22D-08 Max=1.22D-07 NDo=     1
 LinEq1:  Iter= 10 NonCon=     1 RMS=3.64D-09 Max=2.79D-08 NDo=     1
 LinEq1:  Iter= 11 NonCon=     1 RMS=7.44D-10 Max=5.95D-09 NDo=     1
 LinEq1:  Iter= 12 NonCon=     1 RMS=1.52D-10 Max=1.25D-09 NDo=     1
 LinEq1:  Iter= 13 NonCon=     0 RMS=3.64D-11 Max=3.37D-10 NDo=     1
 Linear equations converged to 1.000D-10 1.000D-09 after    13 iterations.
 End of Minotr F.D. properties file   721 does not exist.
 End of Minotr F.D. properties file   722 does not exist.
 End of Minotr F.D. properties file   788 does not exist.
 Leave Link 1002 at Mon Oct 26 20:20:18 2015, MaxMem=  7340032000 cpu:        14.1
 (Enter /usr/local/gaussian/2009-D.01/g09/l601.exe)
 Copying SCF densities to generalized density rwf, IOpCl= 0 IROHF=0.

 **********************************************************************

            Population analysis using the SCF density.

 **********************************************************************

 Alpha  occ. eigenvalues -- -104.81676 -11.30155 -11.24755 -11.23932 -10.54282
 Alpha  occ. eigenvalues --   -8.01043  -8.00736  -8.00731  -1.13538  -1.04364
 Alpha  occ. eigenvalues --   -0.91112  -0.81659  -0.66034  -0.60078  -0.57777
 Alpha  occ. eigenvalues --   -0.57185  -0.51039  -0.49438  -0.49371  -0.42941
 Alpha  occ. eigenvalues --   -0.42756
 Alpha virt. eigenvalues --    0.03437   0.04582   0.04780   0.05484   0.07240
 Alpha virt. eigenvalues --    0.07462   0.07997   0.09510   0.11578   0.13389
 Alpha virt. eigenvalues --    0.15352   0.16180   0.16440   0.16630   0.17215
 Alpha virt. eigenvalues --    0.17471   0.17779   0.18970   0.20277   0.21109
 Alpha virt. eigenvalues --    0.21859   0.22246   0.24596   0.28216   0.29547
 Alpha virt. eigenvalues --    0.30281   0.31455   0.32881   0.35084   0.36189
 Alpha virt. eigenvalues --    0.37236   0.40232   0.41216   0.41444   0.43930
 Alpha virt. eigenvalues --    0.45101   0.45804   0.46256   0.46738   0.46871
 Alpha virt. eigenvalues --    0.47063   0.49905   0.51659   0.52999   0.53846
 Alpha virt. eigenvalues --    0.55667   0.56709   0.57254   0.58628   0.59392
 Alpha virt. eigenvalues --    0.60136   0.62754   0.62791   0.64199   0.64222
 Alpha virt. eigenvalues --    0.66093   0.69479   0.69925   0.71253   0.72374
 Alpha virt. eigenvalues --    0.73759   0.73891   0.76368   0.78895   0.79515
 Alpha virt. eigenvalues --    0.79818   0.81397   0.82981   0.84204   0.89524
 Alpha virt. eigenvalues --    0.90064   0.92770   0.96008   0.96407   1.04223
 Alpha virt. eigenvalues --    1.05292   1.10877   1.11590   1.12243   1.13309
 Alpha virt. eigenvalues --    1.21003   1.21636   1.23414   1.24247   1.30521
 Alpha virt. eigenvalues --    1.32619   1.39092   1.44187   1.46901   1.47646
 Alpha virt. eigenvalues --    1.47732   1.50469   1.50761   1.51583   1.55369
 Alpha virt. eigenvalues --    1.63112   1.63549   1.75574   1.79093   1.81580
 Alpha virt. eigenvalues --    1.83101   1.86771   1.87798   1.93285   1.94625
 Alpha virt. eigenvalues --    1.98799   2.01868   2.02222   2.04901   2.07644
 Alpha virt. eigenvalues --    2.11437   2.14032   2.18331   2.21045   2.22266
 Alpha virt. eigenvalues --    2.24015   2.29451   2.30530   2.33152   2.35821
 Alpha virt. eigenvalues --    2.39194   2.42746   2.48002   2.54719   2.60936
 Alpha virt. eigenvalues --    2.62796   2.63628   2.71489   2.72696   2.83964
 Alpha virt. eigenvalues --    2.84697   2.89075   2.91039   3.03755   3.07628
 Alpha virt. eigenvalues --    3.09328   3.13627   3.16501
          Condensed to atoms (all electrons):
               1          2          3          4          5          6
     1  C    4.271830   0.431070  -0.029686   0.005280   0.341440   0.380883
     2  C    0.431070   4.842593   0.387910  -0.098151   0.105497  -0.088159
     3  C   -0.029686   0.387910   4.931829   0.306070  -0.001244  -0.009650
     4  Cl   0.005280  -0.098151   0.306070  17.252740  -0.000344  -0.000253
     5  H    0.341440   0.105497  -0.001244  -0.000344   1.056773  -0.160801
     6  H    0.380883  -0.088159  -0.009650  -0.000253  -0.160801   1.022077
     7  H    0.380883  -0.088159  -0.009650  -0.000253  -0.160801  -0.114395
     8  H   -0.029883   0.191389  -0.066964  -0.033896  -0.059007  -0.051400
     9  H   -0.029883   0.191389  -0.066964  -0.033896  -0.059007   0.065038
    10  H    0.002355  -0.045310   0.348207  -0.126500   0.002621  -0.019896
    11  H    0.002355  -0.045310   0.348207  -0.126500   0.002621   0.021560
               7          8          9         10         11
     1  C    0.380883  -0.029883  -0.029883   0.002355   0.002355
     2  C   -0.088159   0.191389   0.191389  -0.045310  -0.045310
     3  C   -0.009650  -0.066964  -0.066964   0.348207   0.348207
     4  Cl  -0.000253  -0.033896  -0.033896  -0.126500  -0.126500
     5  H   -0.160801  -0.059007  -0.059007   0.002621   0.002621
     6  H   -0.114395  -0.051400   0.065038  -0.019896   0.021560
     7  H    1.022077   0.065038  -0.051400   0.021560  -0.019896
     8  H    0.065038   1.193946  -0.150645   0.053402  -0.067221
     9  H   -0.051400  -0.150645   1.193946  -0.067221   0.053402
    10  H    0.021560   0.053402  -0.067221   0.919449  -0.109187
    11  H   -0.019896  -0.067221   0.053402  -0.109187   0.919449
 Mulliken charges:
               1
     1  C    0.273355
     2  C    0.215241
     3  C   -0.138063
     4  Cl  -0.144296
     5  H   -0.067749
     6  H   -0.045005
     7  H   -0.045005
     8  H   -0.044759
     9  H   -0.044759
    10  H    0.020519
    11  H    0.020519
 Sum of Mulliken charges =   0.00000
 Mulliken charges with hydrogens summed into heavy atoms:
               1
     1  C    0.115597
     2  C    0.125724
     3  C   -0.097025
     4  Cl  -0.144296
 Electronic spatial extent (au):  <R**2>=            548.0520
 Charge=              0.0000 electrons
 Dipole moment (field-independent basis, Debye):
    X=             -2.4835    Y=              0.3403    Z=              0.0000  Tot=              2.5067
 Quadrupole moment (field-independent basis, Debye-Ang):
   XX=            -36.6642   YY=            -32.9722   ZZ=            -33.0766
   XY=             -0.1565   XZ=              0.0000   YZ=              0.0000
 Traceless Quadrupole moment (field-independent basis, Debye-Ang):
   XX=             -2.4266   YY=              1.2655   ZZ=              1.1611
   XY=             -0.1565   XZ=              0.0000   YZ=              0.0000
 Octapole moment (field-independent basis, Debye-Ang**2):
  XXX=              3.7976  YYY=              0.7800  ZZZ=              0.0000  XYY=              0.2540
  XXY=             -2.6760  XXZ=              0.0000  XZZ=              0.2762  YZZ=              1.2418
  YYZ=              0.0000  XYZ=              0.0000
 Hexadecapole moment (field-independent basis, Debye-Ang**3):
 XXXX=           -588.9566 YYYY=            -96.7995 ZZZZ=            -56.7990 XXXY=            -31.6795
 XXXZ=              0.0000 YYYX=            -28.9307 YYYZ=              0.0000 ZZZX=              0.0000
 ZZZY=              0.0000 XXYY=           -114.6410 XXZZ=           -110.1816 YYZZ=            -23.1960
 XXYZ=              0.0000 YYXZ=              0.0000 ZZXY=            -11.6167
 N-N= 1.578004745548D+02 E-N=-1.683265200434D+03  KE= 5.769493008166D+02
 No NMR shielding tensors so no spin-rotation constants.
 Leave Link  601 at Mon Oct 26 20:20:18 2015, MaxMem=  7340032000 cpu:         1.6
 (Enter /usr/local/gaussian/2009-D.01/g09/l701.exe)
 Compute integral first derivatives.
 ... and contract with generalized density number  2.
 Leave Link  701 at Mon Oct 26 20:20:19 2015, MaxMem=  7340032000 cpu:         1.8
 (Enter /usr/local/gaussian/2009-D.01/g09/l702.exe)
 L702 exits ... SP integral derivatives will be done elsewhere.
 Leave Link  702 at Mon Oct 26 20:20:19 2015, MaxMem=  7340032000 cpu:         0.2
 (Enter /usr/local/gaussian/2009-D.01/g09/l703.exe)
 Compute integral first derivatives, UseDBF=F ICtDFT=           0.
 Integral derivatives from FoFJK, PRISM(SPDF).
 Calling FoFJK, ICntrl=  10002127 FMM=F ISym2X=0 I1Cent= 0 IOpClX= 0 NMat=1 NMatS=1 NMatT=0.
 FoFJK:  IHMeth= 1 ICntrl=10002127 DoSepK=F KAlg= 0 I1Cent=   0 FoldK=F
 IRaf=         0 NMat=   1 IRICut=       1 DoRegI=T DoRafI=F ISym2E= 0.
 FoFCou: FMM=F IPFlag=           0 FMFlag=      100000 FMFlg1=         800
         NFxFlg=           0 DoJE=F BraDBF=F KetDBF=F FulRan=T
         wScrn=  0.000000 ICntrl=10002127 IOpCl=  0 I1Cent=           0 NGrid=           0
         NMat0=    1 NMatS0=      1 NMatT0=    0 NMatD0=    1 NMtDS0=    0 NMtDT0=    0
 Symmetry not used in FoFCou.
 Leave Link  703 at Mon Oct 26 20:20:20 2015, MaxMem=  7340032000 cpu:        15.0
 (Enter /usr/local/gaussian/2009-D.01/g09/l716.exe)
 Dipole        =-8.80559249D-01 1.10820285D-01 6.17284002D-14
 -------------------------------------------------------------------
 Center     Atomic                   Forces (Hartrees/Bohr)
 Number     Number              X              Y              Z
 -------------------------------------------------------------------
      1        6          -0.000148227    0.000061849    0.000000000
      2        6           0.000067671   -0.000113576    0.000000000
      3        6          -0.000030161    0.000069445    0.000000000
      4       17           0.000043508   -0.000016857    0.000000000
      5        1           0.000028177   -0.000028217    0.000000000
      6        1           0.000027598   -0.000002222    0.000009149
      7        1           0.000027598   -0.000002222   -0.000009149
      8        1          -0.000007065    0.000035040    0.000017562
      9        1          -0.000007065    0.000035040   -0.000017562
     10        1          -0.000001017   -0.000019140   -0.000014691
     11        1          -0.000001017   -0.000019140    0.000014691
 -------------------------------------------------------------------
 Cartesian Forces:  Max     0.000148227 RMS     0.000042217
 Leave Link  716 at Mon Oct 26 20:20:20 2015, MaxMem=  7340032000 cpu:         0.4
 (Enter /usr/local/gaussian/2009-D.01/g09/l103.exe)

 GradGradGradGradGradGradGradGradGradGradGradGradGradGradGradGradGradGrad
 Berny optimization.
 FormGI is forming the generalized inverse of G from B-inverse, IUseBI=4.
 Internal  Forces:  Max     0.000070360 RMS     0.000019758
 Search for a local minimum.
 Step number   1 out of a maximum of   56
 All quantities printed in internal units (Hartrees-Bohrs-Radians)
 RMS Force = .19758D-04 SwitMx=.10000D-02 MixMth= 2
 Mixed Optimization -- En-DIIS/RFO-DIIS
 Second derivative matrix not updated -- first step.
 ITU=  0
     Eigenvalues ---    0.00309   0.00466   0.03752   0.04895   0.05453
     Eigenvalues ---    0.05505   0.05588   0.05663   0.08014   0.11952
     Eigenvalues ---    0.16000   0.16000   0.16000   0.16000   0.16000
     Eigenvalues ---    0.21883   0.22261   0.25393   0.29008   0.30108
     Eigenvalues ---    0.33443   0.33443   0.33464   0.33464   0.33622
     Eigenvalues ---    0.33749   0.33749
 RFO step:  Lambda=-1.17111104D-07 EMin= 3.09084501D-03
 Linear search not attempted -- first point.
 Iteration  1 RMS(Cart)=  0.00012051 RMS(Int)=  0.00000002
 Iteration  2 RMS(Cart)=  0.00000002 RMS(Int)=  0.00000001
 ITry= 1 IFail=0 DXMaxC= 3.04D-04 DCOld= 1.00D+10 DXMaxT= 3.00D-01 DXLimC= 3.00D+00 Rises=F
 Variable       Old X    -DE/DX   Delta X   Delta X   Delta X     New X
                                 (Linear)    (Quad)   (Total)
    R1        2.89986   0.00007   0.00000   0.00024   0.00024   2.90010
    R2        2.07972   0.00001   0.00000   0.00002   0.00002   2.07974
    R3        2.08281   0.00000   0.00000   0.00000   0.00000   2.08281
    R4        2.08281   0.00000   0.00000   0.00000   0.00000   2.08281
    R5        2.87748   0.00002   0.00000   0.00006   0.00006   2.87754
    R6        2.08245  -0.00001   0.00000  -0.00002  -0.00002   2.08243
    R7        2.08245  -0.00001   0.00000  -0.00002  -0.00002   2.08243
    R8        3.41919   0.00005   0.00000   0.00018   0.00018   3.41937
    R9        2.07756   0.00000   0.00000   0.00000   0.00000   2.07756
   R10        2.07756   0.00000   0.00000   0.00000   0.00000   2.07756
    A1        1.93350  -0.00004   0.00000  -0.00029  -0.00029   1.93321
    A2        1.94004  -0.00003   0.00000  -0.00016  -0.00016   1.93989
    A3        1.94004  -0.00003   0.00000  -0.00016  -0.00016   1.93989
    A4        1.88163   0.00004   0.00000   0.00021   0.00021   1.88184
    A5        1.88163   0.00004   0.00000   0.00021   0.00021   1.88184
    A6        1.88463   0.00003   0.00000   0.00021   0.00021   1.88484
    A7        1.93124   0.00001   0.00000  -0.00006  -0.00006   1.93118
    A8        1.92740   0.00000   0.00000  -0.00004  -0.00004   1.92735
    A9        1.92740   0.00000   0.00000  -0.00004  -0.00004   1.92735
   A10        1.90282  -0.00001   0.00000  -0.00012  -0.00012   1.90269
   A11        1.90282  -0.00001   0.00000  -0.00012  -0.00012   1.90269
   A12        1.87092   0.00002   0.00000   0.00040   0.00040   1.87132
   A13        1.94248  -0.00001   0.00000  -0.00006  -0.00006   1.94242
   A14        1.94913  -0.00002   0.00000  -0.00009  -0.00009   1.94904
   A15        1.94913  -0.00002   0.00000  -0.00009  -0.00009   1.94904
   A16        1.85554   0.00001   0.00000   0.00000   0.00000   1.85554
   A17        1.85554   0.00001   0.00000   0.00000   0.00000   1.85554
   A18        1.90735   0.00003   0.00000   0.00025   0.00025   1.90760
    D1        3.14159   0.00000   0.00000   0.00000   0.00000   3.14159
    D2       -1.03313  -0.00001   0.00000  -0.00022  -0.00022  -1.03335
    D3        1.03313   0.00001   0.00000   0.00022   0.00022   1.03335
    D4       -1.04992   0.00000   0.00000  -0.00003  -0.00003  -1.04995
    D5        1.05854  -0.00001   0.00000  -0.00025  -0.00025   1.05829
    D6        3.12480   0.00001   0.00000   0.00019   0.00019   3.12499
    D7        1.04992   0.00000   0.00000   0.00003   0.00003   1.04995
    D8       -3.12480  -0.00001   0.00000  -0.00019  -0.00019  -3.12499
    D9       -1.05854   0.00001   0.00000   0.00025   0.00025  -1.05829
   D10        3.14159   0.00000   0.00000   0.00000   0.00000   3.14159
   D11       -1.07085  -0.00001   0.00000  -0.00010  -0.00010  -1.07095
   D12        1.07085   0.00001   0.00000   0.00010   0.00010   1.07095
   D13        1.01859   0.00001   0.00000   0.00017   0.00017   1.01876
   D14        3.08933   0.00000   0.00000   0.00007   0.00007   3.08940
   D15       -1.05215   0.00001   0.00000   0.00027   0.00027  -1.05188
   D16       -1.01859  -0.00001   0.00000  -0.00017  -0.00017  -1.01876
   D17        1.05215  -0.00001   0.00000  -0.00027  -0.00027   1.05188
   D18       -3.08933   0.00000   0.00000  -0.00007  -0.00007  -3.08940
         Item               Value     Threshold  Converged?
 Maximum Force            0.000070     0.000450     YES
 RMS     Force            0.000020     0.000300     YES
 Maximum Displacement     0.000304     0.001800     YES
 RMS     Displacement     0.000121     0.001200     YES
 Predicted change in Energy=-5.855440D-08
 Optimization completed.
    -- Stationary point found.
                           ----------------------------
                           !   Optimized Parameters   !
                           ! (Angstroms and Degrees)  !
 --------------------------                            --------------------------
 ! Name  Definition              Value          Derivative Info.                !
 --------------------------------------------------------------------------------
 ! R1    R(1,2)                  1.5345         -DE/DX =    0.0001              !
 ! R2    R(1,5)                  1.1005         -DE/DX =    0.0                 !
 ! R3    R(1,6)                  1.1022         -DE/DX =    0.0                 !
 ! R4    R(1,7)                  1.1022         -DE/DX =    0.0                 !
 ! R5    R(2,3)                  1.5227         -DE/DX =    0.0                 !
 ! R6    R(2,8)                  1.102          -DE/DX =    0.0                 !
 ! R7    R(2,9)                  1.102          -DE/DX =    0.0                 !
 ! R8    R(3,4)                  1.8094         -DE/DX =    0.0                 !
 ! R9    R(3,10)                 1.0994         -DE/DX =    0.0                 !
 ! R10   R(3,11)                 1.0994         -DE/DX =    0.0                 !
 ! A1    A(2,1,5)              110.7815         -DE/DX =    0.0                 !
 ! A2    A(2,1,6)              111.1564         -DE/DX =    0.0                 !
 ! A3    A(2,1,7)              111.1564         -DE/DX =    0.0                 !
 ! A4    A(5,1,6)              107.8092         -DE/DX =    0.0                 !
 ! A5    A(5,1,7)              107.8092         -DE/DX =    0.0                 !
 ! A6    A(6,1,7)              107.9815         -DE/DX =    0.0                 !
 ! A7    A(1,2,3)              110.652          -DE/DX =    0.0                 !
 ! A8    A(1,2,8)              110.4317         -DE/DX =    0.0                 !
 ! A9    A(1,2,9)              110.4317         -DE/DX =    0.0                 !
 ! A10   A(3,2,8)              109.0233         -DE/DX =    0.0                 !
 ! A11   A(3,2,9)              109.0233         -DE/DX =    0.0                 !
 ! A12   A(8,2,9)              107.1959         -DE/DX =    0.0                 !
 ! A13   A(2,3,4)              111.2961         -DE/DX =    0.0                 !
 ! A14   A(2,3,10)             111.6767         -DE/DX =    0.0                 !
 ! A15   A(2,3,11)             111.6767         -DE/DX =    0.0                 !
 ! A16   A(4,3,10)             106.3143         -DE/DX =    0.0                 !
 ! A17   A(4,3,11)             106.3143         -DE/DX =    0.0                 !
 ! A18   A(10,3,11)            109.283          -DE/DX =    0.0                 !
 ! D1    D(5,1,2,3)            180.0            -DE/DX =    0.0                 !
 ! D2    D(5,1,2,8)            -59.1941         -DE/DX =    0.0                 !
 ! D3    D(5,1,2,9)             59.1941         -DE/DX =    0.0                 !
 ! D4    D(6,1,2,3)            -60.1562         -DE/DX =    0.0                 !
 ! D5    D(6,1,2,8)             60.6498         -DE/DX =    0.0                 !
 ! D6    D(6,1,2,9)            179.0379         -DE/DX =    0.0                 !
 ! D7    D(7,1,2,3)             60.1562         -DE/DX =    0.0                 !
 ! D8    D(7,1,2,8)           -179.0379         -DE/DX =    0.0                 !
 ! D9    D(7,1,2,9)            -60.6498         -DE/DX =    0.0                 !
 ! D10   D(1,2,3,4)            180.0            -DE/DX =    0.0                 !
 ! D11   D(1,2,3,10)           -61.3553         -DE/DX =    0.0                 !
 ! D12   D(1,2,3,11)            61.3553         -DE/DX =    0.0                 !
 ! D13   D(8,2,3,4)             58.3609         -DE/DX =    0.0                 !
 ! D14   D(8,2,3,10)           177.0056         -DE/DX =    0.0                 !
 ! D15   D(8,2,3,11)           -60.2838         -DE/DX =    0.0                 !
 ! D16   D(9,2,3,4)            -58.3609         -DE/DX =    0.0                 !
 ! D17   D(9,2,3,10)            60.2838         -DE/DX =    0.0                 !
 ! D18   D(9,2,3,11)          -177.0056         -DE/DX =    0.0                 !
 --------------------------------------------------------------------------------
 Lowest energy point so far.  Saving SCF results.
 GradGradGradGradGradGradGradGradGradGradGradGradGradGradGradGradGradGrad

 Largest change from initial coordinates is atom    0       0.000 Angstoms.
 Leave Link  103 at Mon Oct 26 20:20:20 2015, MaxMem=  7340032000 cpu:         0.2
 (Enter /usr/local/gaussian/2009-D.01/g09/l202.exe)
                          Input orientation:                          
 ---------------------------------------------------------------------
 Center     Atomic      Atomic             Coordinates (Angstroms)
 Number     Number       Type             X           Y           Z
 ---------------------------------------------------------------------
      1          6           0       -2.382058   -0.214688    0.000000
      2          6           0       -0.905909   -0.633960    0.000000
      3          6           0        0.000000    0.589942    0.000000
      4         17           0        1.745961    0.115182    0.000000
      5          1           0       -3.038810   -1.097791    0.000000
      6          1           0       -2.624955    0.386050    0.891573
      7          1           0       -2.624955    0.386050   -0.891573
      8          1           0       -0.680351   -1.247800    0.886956
      9          1           0       -0.680351   -1.247800   -0.886956
     10          1           0       -0.152058    1.207714   -0.896610
     11          1           0       -0.152058    1.207714    0.896610
 ---------------------------------------------------------------------
                    Distance matrix (angstroms):
                    1          2          3          4          5
     1  C    0.000000
     2  C    1.534537   0.000000
     3  C    2.514285   1.522697   0.000000
     4  Cl   4.141178   2.755654   1.809358   0.000000
     5  H    1.100543   2.182752   3.476034   4.936126   0.000000
     6  H    1.102174   2.188708   2.779724   4.469136   1.779877
     7  H    1.102174   2.188708   2.779724   4.469136   1.779877
     8  H    2.179408   1.101983   2.151015   2.920856   2.524187
     9  H    2.179408   1.101983   2.151015   2.920856   2.524187
    10  H    2.792855   2.182651   1.099397   2.366434   3.801658
    11  H    2.792855   2.182651   1.099397   2.366434   3.801658
                    6          7          8          9         10
     6  H    0.000000
     7  H    1.783146   0.000000
     8  H    2.539876   3.100664   0.000000
     9  H    3.100664   2.539876   1.773912   0.000000
    10  H    3.160372   2.605835   3.080544   2.511720   0.000000
    11  H    2.605835   3.160372   2.511720   3.080544   1.793220
                   11
    11  H    0.000000
 Symmetry turned off by external request.
 Stoichiometry    C3H7Cl
 Framework group  CS[SG(C3HCl),X(H6)]
 Deg. of freedom    16
 Full point group                 CS      NOp   2
 Rotational constants (GHZ):     25.5958899      2.3563527      2.2500994
 Leave Link  202 at Mon Oct 26 20:20:20 2015, MaxMem=  7340032000 cpu:         0.1
 (Enter /usr/local/gaussian/2009-D.01/g09/l9999.exe)
 1\1\ WCSS.PL-BEM-WN0811\FOpt\RMP2-FC\Aug-CC-pVDZ\C3H7Cl1\ROOT\26-Oct-2
 015\0\\#p rmp2/aug-cc-pVDZ opt freq Temperature=528.5 nosymm\\CH3CH2CH
 2Cl - optimization and frequencies\\0,1\C,-2.382058,-0.214688,0.\C,-0.
 905909,-0.63396,0.\C,0.,0.589942,0.\Cl,1.745961,0.115182,0.\H,-3.03881
 ,-1.097791,0.\H,-2.624955,0.38605,0.891573\H,-2.624955,0.38605,-0.8915
 73\H,-0.680351,-1.2478,0.886956\H,-0.680351,-1.2478,-0.886956\H,-0.152
 058,1.207714,-0.89661\H,-0.152058,1.207714,0.89661\\Version=ES64L-G09R
 evD.01\HF=-577.203495\MP2=-577.8049266\RMSD=4.436e-09\RMSF=4.222e-05\D
 ipole=-0.8805592,0.1108203,0.\PG=CS [SG(C3H1Cl1),X(H6)]\\@


 MAN IS THE MEASURE OF ALL THINGS.
  -- PROTAGORAS (5TH CENTURY B.C.)
 Leave Link 9999 at Mon Oct 26 20:20:20 2015, MaxMem=  7340032000 cpu:         0.3
 Job cpu time:       0 days  0 hours  2 minutes 37.3 seconds.
 File lengths (MBytes):  RWF=     12 Int=      0 D2E=      0 Chk=      3 Scr=      1
 Normal termination of Gaussian 09 at Mon Oct 26 20:20:20 2015.
 (Enter /usr/local/gaussian/2009-D.01/g09/l1.exe)
 Link1:  Proceeding to internal job step number  2.
 ----------------------------------------------------------------------
 #P Geom=AllCheck Guess=TCheck SCRF=Check GenChk RMP2(FC)/Aug-CC-pVDZ F
 req
 ----------------------------------------------------------------------
 1/10=4,29=7,30=1,38=1,40=1,112=528500/1,3;
 2/12=2,15=1,40=1/2;
 3/5=16,7=10,11=1,14=-4,16=1,25=1,30=1,70=2,71=2,116=1,140=1/1,2,3;
 4/5=101/1;
 5/5=2,98=1/2;
 8/6=3,8=1,10=1,19=11,30=-1/1;
 9/15=3,16=-3/6;
 11/6=1,8=1,15=11,17=12,24=-1,27=1,28=-2,29=300,31=1,32=6,42=3/1,2,10;
 10/6=2,21=1,31=1/2;
 8/6=4,8=1,10=1,19=11,30=-1/11,4;
 10/5=1,20=4,31=1/2;
 11/12=2,14=11,16=1,17=2,28=-2,31=1,42=3/2,10,12;
 6/7=2,8=2,9=2,10=2/1;
 7/8=1,10=1,12=2,25=1,30=1,44=2/1,2,3,16;
 1/10=4,30=1/3;
 99//99;
 Leave Link    1 at Mon Oct 26 20:20:20 2015, MaxMem=  7340032000 cpu:         0.4
 (Enter /usr/local/gaussian/2009-D.01/g09/l101.exe)
 Structure from the checkpoint file:  "CH3CH2CH2Cl_MP2_aug-cc-pVDZ_opt_freq_528K.chk"
 ------------------------------------------
 CH3CH2CH2Cl - optimization and frequencies
 ------------------------------------------
 Charge =  0 Multiplicity = 1
 Redundant internal coordinates found in file.
 C,0,-2.382058,-0.214688,0.
 C,0,-0.905909,-0.63396,0.
 C,0,0.,0.589942,0.
 Cl,0,1.745961,0.115182,0.
 H,0,-3.03881,-1.097791,0.
 H,0,-2.624955,0.38605,0.891573
 H,0,-2.624955,0.38605,-0.891573
 H,0,-0.680351,-1.2478,0.886956
 H,0,-0.680351,-1.2478,-0.886956
 H,0,-0.152058,1.207714,-0.89661
 H,0,-0.152058,1.207714,0.89661
 Recover connectivity data from disk.
 NAtoms=     11 NQM=       11 NQMF=       0 NMMI=      0 NMMIF=      0
                NMic=       0 NMicF=      0.
                    Isotopes and Nuclear Properties:
 (Nuclear quadrupole moments (NQMom) in fm**2, nuclear magnetic moments (NMagM)
  in nuclear magnetons)

  Atom         1           2           3           4           5           6           7           8           9          10
 IAtWgt=          12          12          12          35           1           1           1           1           1           1
 AtmWgt=  12.0000000  12.0000000  12.0000000  34.9688527   1.0078250   1.0078250   1.0078250   1.0078250   1.0078250   1.0078250
 NucSpn=           0           0           0           3           1           1           1           1           1           1
 AtZEff=  -3.6000000  -3.6000000  -3.6000000 -14.2400000  -1.0000000  -1.0000000  -1.0000000  -1.0000000  -1.0000000  -1.0000000
 NQMom=    0.0000000   0.0000000   0.0000000  -8.1650000   0.0000000   0.0000000   0.0000000   0.0000000   0.0000000   0.0000000
 NMagM=    0.0000000   0.0000000   0.0000000   0.8218740   2.7928460   2.7928460   2.7928460   2.7928460   2.7928460   2.7928460
 AtZNuc=   6.0000000   6.0000000   6.0000000  17.0000000   1.0000000   1.0000000   1.0000000   1.0000000   1.0000000   1.0000000

  Atom        11
 IAtWgt=           1
 AtmWgt=   1.0078250
 NucSpn=           1
 AtZEff=  -1.0000000
 NQMom=    0.0000000
 NMagM=    2.7928460
 AtZNuc=   1.0000000
 Leave Link  101 at Mon Oct 26 20:20:21 2015, MaxMem=  7340032000 cpu:         3.8
 (Enter /usr/local/gaussian/2009-D.01/g09/l103.exe)

 GradGradGradGradGradGradGradGradGradGradGradGradGradGradGradGradGradGrad
 Berny optimization.
 Initialization pass.
                           ----------------------------
                           !    Initial Parameters    !
                           ! (Angstroms and Degrees)  !
 --------------------------                            --------------------------
 ! Name  Definition              Value          Derivative Info.                !
 --------------------------------------------------------------------------------
 ! R1    R(1,2)                  1.5345         calculate D2E/DX2 analytically  !
 ! R2    R(1,5)                  1.1005         calculate D2E/DX2 analytically  !
 ! R3    R(1,6)                  1.1022         calculate D2E/DX2 analytically  !
 ! R4    R(1,7)                  1.1022         calculate D2E/DX2 analytically  !
 ! R5    R(2,3)                  1.5227         calculate D2E/DX2 analytically  !
 ! R6    R(2,8)                  1.102          calculate D2E/DX2 analytically  !
 ! R7    R(2,9)                  1.102          calculate D2E/DX2 analytically  !
 ! R8    R(3,4)                  1.8094         calculate D2E/DX2 analytically  !
 ! R9    R(3,10)                 1.0994         calculate D2E/DX2 analytically  !
 ! R10   R(3,11)                 1.0994         calculate D2E/DX2 analytically  !
 ! A1    A(2,1,5)              110.7815         calculate D2E/DX2 analytically  !
 ! A2    A(2,1,6)              111.1564         calculate D2E/DX2 analytically  !
 ! A3    A(2,1,7)              111.1564         calculate D2E/DX2 analytically  !
 ! A4    A(5,1,6)              107.8092         calculate D2E/DX2 analytically  !
 ! A5    A(5,1,7)              107.8092         calculate D2E/DX2 analytically  !
 ! A6    A(6,1,7)              107.9815         calculate D2E/DX2 analytically  !
 ! A7    A(1,2,3)              110.652          calculate D2E/DX2 analytically  !
 ! A8    A(1,2,8)              110.4317         calculate D2E/DX2 analytically  !
 ! A9    A(1,2,9)              110.4317         calculate D2E/DX2 analytically  !
 ! A10   A(3,2,8)              109.0233         calculate D2E/DX2 analytically  !
 ! A11   A(3,2,9)              109.0233         calculate D2E/DX2 analytically  !
 ! A12   A(8,2,9)              107.1959         calculate D2E/DX2 analytically  !
 ! A13   A(2,3,4)              111.2961         calculate D2E/DX2 analytically  !
 ! A14   A(2,3,10)             111.6767         calculate D2E/DX2 analytically  !
 ! A15   A(2,3,11)             111.6767         calculate D2E/DX2 analytically  !
 ! A16   A(4,3,10)             106.3143         calculate D2E/DX2 analytically  !
 ! A17   A(4,3,11)             106.3143         calculate D2E/DX2 analytically  !
 ! A18   A(10,3,11)            109.283          calculate D2E/DX2 analytically  !
 ! D1    D(5,1,2,3)            180.0            calculate D2E/DX2 analytically  !
 ! D2    D(5,1,2,8)            -59.1941         calculate D2E/DX2 analytically  !
 ! D3    D(5,1,2,9)             59.1941         calculate D2E/DX2 analytically  !
 ! D4    D(6,1,2,3)            -60.1562         calculate D2E/DX2 analytically  !
 ! D5    D(6,1,2,8)             60.6498         calculate D2E/DX2 analytically  !
 ! D6    D(6,1,2,9)            179.0379         calculate D2E/DX2 analytically  !
 ! D7    D(7,1,2,3)             60.1562         calculate D2E/DX2 analytically  !
 ! D8    D(7,1,2,8)           -179.0379         calculate D2E/DX2 analytically  !
 ! D9    D(7,1,2,9)            -60.6498         calculate D2E/DX2 analytically  !
 ! D10   D(1,2,3,4)            180.0            calculate D2E/DX2 analytically  !
 ! D11   D(1,2,3,10)           -61.3553         calculate D2E/DX2 analytically  !
 ! D12   D(1,2,3,11)            61.3553         calculate D2E/DX2 analytically  !
 ! D13   D(8,2,3,4)             58.3609         calculate D2E/DX2 analytically  !
 ! D14   D(8,2,3,10)           177.0056         calculate D2E/DX2 analytically  !
 ! D15   D(8,2,3,11)           -60.2838         calculate D2E/DX2 analytically  !
 ! D16   D(9,2,3,4)            -58.3609         calculate D2E/DX2 analytically  !
 ! D17   D(9,2,3,10)            60.2838         calculate D2E/DX2 analytically  !
 ! D18   D(9,2,3,11)          -177.0056         calculate D2E/DX2 analytically  !
 --------------------------------------------------------------------------------
 Trust Radius=3.00D-01 FncErr=1.00D-07 GrdErr=1.00D-07
 Number of steps in this run=      2 maximum allowed number of steps=      2.
 GradGradGradGradGradGradGradGradGradGradGradGradGradGradGradGradGradGrad

 Leave Link  103 at Mon Oct 26 20:20:21 2015, MaxMem=  7340032000 cpu:         0.1
 (Enter /usr/local/gaussian/2009-D.01/g09/l202.exe)
                          Input orientation:                          
 ---------------------------------------------------------------------
 Center     Atomic      Atomic             Coordinates (Angstroms)
 Number     Number       Type             X           Y           Z
 ---------------------------------------------------------------------
      1          6           0       -2.382058   -0.214688    0.000000
      2          6           0       -0.905909   -0.633960    0.000000
      3          6           0        0.000000    0.589942    0.000000
      4         17           0        1.745961    0.115182    0.000000
      5          1           0       -3.038810   -1.097791    0.000000
      6          1           0       -2.624955    0.386050    0.891573
      7          1           0       -2.624955    0.386050   -0.891573
      8          1           0       -0.680351   -1.247800    0.886956
      9          1           0       -0.680351   -1.247800   -0.886956
     10          1           0       -0.152058    1.207714   -0.896610
     11          1           0       -0.152058    1.207714    0.896610
 ---------------------------------------------------------------------
                    Distance matrix (angstroms):
                    1          2          3          4          5
     1  C    0.000000
     2  C    1.534537   0.000000
     3  C    2.514285   1.522697   0.000000
     4  Cl   4.141178   2.755654   1.809358   0.000000
     5  H    1.100543   2.182752   3.476034   4.936126   0.000000
     6  H    1.102174   2.188708   2.779724   4.469136   1.779877
     7  H    1.102174   2.188708   2.779724   4.469136   1.779877
     8  H    2.179408   1.101983   2.151015   2.920856   2.524187
     9  H    2.179408   1.101983   2.151015   2.920856   2.524187
    10  H    2.792855   2.182651   1.099397   2.366434   3.801658
    11  H    2.792855   2.182651   1.099397   2.366434   3.801658
                    6          7          8          9         10
     6  H    0.000000
     7  H    1.783146   0.000000
     8  H    2.539876   3.100664   0.000000
     9  H    3.100664   2.539876   1.773912   0.000000
    10  H    3.160372   2.605835   3.080544   2.511720   0.000000
    11  H    2.605835   3.160372   2.511720   3.080544   1.793220
                   11
    11  H    0.000000
 Symmetry turned off by external request.
 Stoichiometry    C3H7Cl
 Framework group  CS[SG(C3HCl),X(H6)]
 Deg. of freedom    16
 Full point group                 CS      NOp   2
 Rotational constants (GHZ):     25.5958899      2.3563527      2.2500994
 Leave Link  202 at Mon Oct 26 20:20:21 2015, MaxMem=  7340032000 cpu:         0.1
 (Enter /usr/local/gaussian/2009-D.01/g09/l301.exe)
 Standard basis: Aug-CC-pVDZ (5D, 7F)
 Ernie: Thresh=  0.10000D-02 Tol=  0.10000D-05 Strict=F.
 Ernie:  16 primitive shells out of 177 were deleted.
   159 basis functions,   287 primitive gaussians,   167 cartesian basis functions
    21 alpha electrons       21 beta electrons
       nuclear repulsion energy       157.8004745548 Hartrees.
 IExCor=    0 DFT=F Ex=HF Corr=None ExCW=0 ScaHFX=  1.000000
 ScaDFX=  1.000000  1.000000  1.000000  1.000000 ScalE2=  1.000000  1.000000
 IRadAn=      0 IRanWt=     -1 IRanGd=            0 ICorTp=0 IEmpDi=  4
 NAtoms=   11 NActive=   11 NUniq=   11 SFac= 1.00D+00 NAtFMM=   60 NAOKFM=F Big=F
 Integral buffers will be    131072 words long.
 Raffenetti 1 integral format.
 Two-electron integral symmetry is turned off.
 Leave Link  301 at Mon Oct 26 20:20:21 2015, MaxMem=  7340032000 cpu:         0.4
 (Enter /usr/local/gaussian/2009-D.01/g09/l302.exe)
 NPDir=0 NMtPBC=     1 NCelOv=     1 NCel=       1 NClECP=     1 NCelD=      1
         NCelK=      1 NCelE2=     1 NClLst=     1 CellRange=     0.0.
 One-electron integrals computed using PRISM.
 NBasis=   159 RedAO= T EigKep=  5.25D-05  NBF=   159
 NBsUse=   159 1.00D-06 EigRej= -1.00D+00 NBFU=   159
 Leave Link  302 at Mon Oct 26 20:20:21 2015, MaxMem=  7340032000 cpu:         1.8
 (Enter /usr/local/gaussian/2009-D.01/g09/l303.exe)
 DipDrv:  MaxL=1.
 Leave Link  303 at Mon Oct 26 20:20:21 2015, MaxMem=  7340032000 cpu:         0.3
 (Enter /usr/local/gaussian/2009-D.01/g09/l401.exe)
 Initial guess from the checkpoint file:  "CH3CH2CH2Cl_MP2_aug-cc-pVDZ_opt_freq_528K.chk"
 B after Tr=     0.000000    0.000000    0.000000
         Rot=    1.000000    0.000000    0.000000    0.000000 Ang=   0.00 deg.
 Guess basis will be translated and rotated to current coordinates.
 JPrj=2 DoOrth=T DoCkMO=T.
 Leave Link  401 at Mon Oct 26 20:20:21 2015, MaxMem=  7340032000 cpu:         1.2
 (Enter /usr/local/gaussian/2009-D.01/g09/l502.exe)
 Closed shell SCF:
 Using DIIS extrapolation, IDIIS=  1040.
 Two-electron integral symmetry not used.
 Keep R1 ints in memory in canonical form, NReq=83381537.
 IVT=      105245 IEndB=      105245 NGot=  7340032000 MDV=  7259021196
 LenX=  7259021196 LenY=  7258992866
 Requested convergence on RMS density matrix=1.00D-08 within 128 cycles.
 Requested convergence on MAX density matrix=1.00D-06.
 Requested convergence on             energy=1.00D-06.
 No special actions if energy rises.
 FoFCou: FMM=F IPFlag=           0 FMFlag=           0 FMFlg1=           0
         NFxFlg=           0 DoJE=F BraDBF=F KetDBF=F FulRan=T
         wScrn=  0.000000 ICntrl=     600 IOpCl=  0 I1Cent=           0 NGrid=           0
         NMat0=    1 NMatS0=  12720 NMatT0=    0 NMatD0=    1 NMtDS0=    0 NMtDT0=    0
 Symmetry not used in FoFCou.

 Cycle   1  Pass 1  IDiag  1:
 E= -577.203494995966    
 DIIS: error= 2.86D-09 at cycle   1 NSaved=   1.
 NSaved= 1 IEnMin= 1 EnMin= -577.203494995966     IErMin= 1 ErrMin= 2.86D-09
 ErrMax= 2.86D-09  0.00D+00 EMaxC= 1.00D-01 BMatC= 1.27D-15 BMatP= 1.27D-15
 IDIUse=1 WtCom= 1.00D+00 WtEn= 0.00D+00
 Coeff-Com:  0.100D+01
 Coeff:      0.100D+01
 Gap=     0.462 Goal=   None    Shift=    0.000
 RMSDP=7.45D-10 MaxDP=1.50D-08              OVMax= 2.05D-08

 SCF Done:  E(RHF) =  -577.203494996     A.U. after    1 cycles
            NFock=  1  Conv=0.75D-09     -V/T= 2.0004
 KE= 5.769493007992D+02 PE=-1.683265200417D+03 EE= 3.713119300666D+02
 Leave Link  502 at Mon Oct 26 20:20:22 2015, MaxMem=  7340032000 cpu:        11.1
 (Enter /usr/local/gaussian/2009-D.01/g09/l801.exe)
 ExpMin= 2.97D-02 ExpMax= 1.28D+05 ExpMxC= 1.24D+03 IAcc=3 IRadAn=         5 AccDes= 0.00D+00
 HarFok:  IExCor=  205 AccDes= 0.00D+00 IRadAn=         5 IDoV=-2 UseB2=F ITyADJ=14
 ICtDFT= 12500011 ScaDFX=  1.000000  1.000000  1.000000  1.000000
 Largest valence mixing into a core orbital is  2.90D-04
 Largest core mixing into a valence orbital is  9.29D-05
 Range of M.O.s used for correlation:     9   159
 NBasis=   159 NAE=    21 NBE=    21 NFC=     8 NFV=     0
 NROrb=    151 NOA=    13 NOB=    13 NVA=   138 NVB=   138

 **** Warning!!: The largest alpha MO coefficient is  0.34660468D+02

 Leave Link  801 at Mon Oct 26 20:20:22 2015, MaxMem=  7340032000 cpu:         0.9
 (Enter /usr/local/gaussian/2009-D.01/g09/l906.exe)
 Frozen-core derivative calculation, NFC=   8 NFV=   0.
 FulOut=F Deriv=T AODrv=T NAtomX=    11
   MMem=           0  MDisk=          13 MDiskD=          13
  W3Min=      557613 MinDsk=     1796653 NBas6D=         167
 NBas2D=       14229    NTT=       14028    LW2=     3300000
    MDV=  7339631889 MDiskM=      610248 NBas2p=       14217
 Disk-based method using ON**2 memory for 13 occupieds at a time.
 Permanent disk used for amplitudes=    10383534 words.
 Estimated scratch disk usage=   116729743 words.
 IMap=   1   2   3   4   5   6   7   8   9  10  11  12  13  14  15  16  17  18  19  20
 IMap=  21
 Actual    scratch disk usage=   106536335 words.
 JobTyp=1 Pass  1:  I=   9 to  21 NPSUse= 12 ParTrn=T ParDer=T DoDerP=T.
 (rs|ai) integrals will be sorted in core.
 Spin components of T(2) and E(2):
     alpha-alpha T2 =       0.2710654670D-01 E2=     -0.7115219484D-01
     alpha-beta  T2 =       0.1626318563D+00 E2=     -0.4591271691D+00
     beta-beta   T2 =       0.2710654670D-01 E2=     -0.7115219484D-01
 The integrals were generated   1 times.
 ANorm=    0.1103106953D+01
 E2 =    -0.6014315588D+00 EUMP2 =    -0.57780492655476D+03
 Leave Link  906 at Mon Oct 26 20:21:16 2015, MaxMem=  7340032000 cpu:       645.0
 (Enter /usr/local/gaussian/2009-D.01/g09/l1101.exe)
 Using compressed Sx but separate Hx and Fx, NAtomX=    11.
 Will process     12 centers per pass.
 Leave Link 1101 at Mon Oct 26 20:21:16 2015, MaxMem=  7340032000 cpu:         2.0
 (Enter /usr/local/gaussian/2009-D.01/g09/l1102.exe)
 Leave Link 1102 at Mon Oct 26 20:21:16 2015, MaxMem=  7340032000 cpu:         0.2
 (Enter /usr/local/gaussian/2009-D.01/g09/l1110.exe)
 Forming Gx(P) for the SCF density, NAtomX=    11.
 Integral derivatives from FoFJK, PRISM(SPDF).
 Do as many integral derivatives as possible in FoFJK.
 G2DrvN: MDV=    7340031808.
 G2DrvN: will do    12 centers at a time, making    1 passes.
 Calling FoFCou, ICntrl=  3107 FMM=F I1Cent=   0 AccDes= 0.00D+00.
 FoFJK:  IHMeth= 1 ICntrl=    3107 DoSepK=F KAlg= 0 I1Cent=   0 FoldK=F
 IRaf=         0 NMat=   1 IRICut=       1 DoRegI=T DoRafI=F ISym2E= 0.
 FoFCou: FMM=F IPFlag=           0 FMFlag=      100000 FMFlg1=           0
         NFxFlg=           0 DoJE=F BraDBF=F KetDBF=F FulRan=T
         wScrn=  0.000000 ICntrl=    3107 IOpCl=  0 I1Cent=           0 NGrid=           0
         NMat0=    1 NMatS0=      1 NMatT0=    0 NMatD0=    1 NMtDS0=    0 NMtDT0=    0
 Symmetry not used in FoFCou.
 End of G2Drv F.D. properties file   721 does not exist.
 End of G2Drv F.D. properties file   722 does not exist.
 End of G2Drv F.D. properties file   788 does not exist.
 Leave Link 1110 at Mon Oct 26 20:21:18 2015, MaxMem=  7340032000 cpu:        25.3
 (Enter /usr/local/gaussian/2009-D.01/g09/l1002.exe)
 Minotr:  Closed shell wavefunction.
          IDoAtm=11111111111
          Frozen-core window.
          Direct CPHF calculation.
          Differentiating once with respect to electric field.
                with respect to dipole field.
          Differentiating once with respect to nuclear coordinates.
          Requested convergence is 1.0D-08 RMS, and 1.0D-07 maximum.
          Secondary convergence is 1.0D-12 RMS, and 1.0D-12 maximum.
          NewPWx=T KeepS1=T KeepF1=T KeepIn=T MapXYZ=F SortEE=F KeepMc=T.
          MDV=    7340031735 using IRadAn=       2.
 Keep R1 ints in memory in canonical form, NReq=83277870.
 FoFCou: FMM=F IPFlag=           0 FMFlag=           0 FMFlg1=           0
         NFxFlg=           0 DoJE=F BraDBF=F KetDBF=F FulRan=T
         wScrn=  0.000000 ICntrl=     600 IOpCl=  0 I1Cent=           0 NGrid=           0
         NMat0=    1 NMatS0=  12720 NMatT0=    0 NMatD0=    1 NMtDS0=    0 NMtDT0=    0
 Symmetry not used in FoFCou.
          Solving linear equations simultaneously, MaxMat=       0.
          There are    36 degrees of freedom in the 1st order CPHF.  IDoFFX=6 NUNeed=    36.
     33 vectors produced by pass  0 Test12= 8.05D-15 2.78D-09 XBig12= 1.59D+01 9.35D-01.
 AX will form    33 AO Fock derivatives at one time.
     33 vectors produced by pass  1 Test12= 8.05D-15 2.78D-09 XBig12= 6.54D-01 1.78D-01.
     33 vectors produced by pass  2 Test12= 8.05D-15 2.78D-09 XBig12= 1.38D-02 2.69D-02.
     33 vectors produced by pass  3 Test12= 8.05D-15 2.78D-09 XBig12= 1.84D-04 3.00D-03.
     33 vectors produced by pass  4 Test12= 8.05D-15 2.78D-09 XBig12= 1.49D-06 1.69D-04.
     33 vectors produced by pass  5 Test12= 8.05D-15 2.78D-09 XBig12= 1.33D-08 1.86D-05.
     33 vectors produced by pass  6 Test12= 8.05D-15 2.78D-09 XBig12= 9.38D-11 1.45D-06.
      9 vectors produced by pass  7 Test12= 8.05D-15 2.78D-09 XBig12= 5.10D-13 1.04D-07.
      3 vectors produced by pass  8 Test12= 8.05D-15 2.78D-09 XBig12= 2.59D-15 6.67D-09.
 InvSVY:  IOpt=1 It=  1 EMax= 5.51D-16
 Solved reduced A of dimension   243 with    36 vectors.
 FullF1:  Do perturbations    1 to    36.
 Saving first derivative matrices.
 End of Minotr F.D. properties file   721 does not exist.
 End of Minotr F.D. properties file   722 does not exist.
 End of Minotr F.D. properties file   788 does not exist.
 Leave Link 1002 at Mon Oct 26 20:21:23 2015, MaxMem=  7340032000 cpu:        49.9
 (Enter /usr/local/gaussian/2009-D.01/g09/l811.exe)
 MDV=  7340032000.
 Form MO integral derivatives with frozen-active canonical formalism.
 MOERI=1 MOERIx=1 NAtoms=    11 NAtomX=    11.
 Discarding MO integrals.
 MO basis two electron integral derivatives will not be stored on disk.
 IAlg= 3 DoFC=T DoPWx=T Debug=F.
 Frozen-core window:  NFC=   8 NFV=   0.
 Reordered first order wavefunction length =     16796808
 In DefCFB: NBatch=  1 ICI= 21 ICA=138 LFMax= 69
            Large arrays: LIAPS=   307802376 LIARS=    98245098 words.
 In StABat: MaxSiz= 29 MinSiz=  9 NAtomB=  7
 DoIAMN: NPSUse= 12.
 Leave Link  811 at Mon Oct 26 20:23:57 2015, MaxMem=  7340032000 cpu:      1763.9
 (Enter /usr/local/gaussian/2009-D.01/g09/l804.exe)
 Frozen-core window:  NFC=   8 NFV=   0.
 Closed-shell transformation, MDV=  7340032000 ITran=4 ISComp=1.
 Semi-Direct transformation.
 ModeAB=           2 MOrb=            21 LenV=    7339222399
 LASXX=     38409063 LTotXX=    38409063 LenRXX=    38409063
 LTotAB=    39131442 MaxLAS=    46839492 LenRXY=    46839492
 NonZer=    76818126 LenScr=   115968000 LnRSAI=           0
 LnScr1=           0 LExtra=           0 Total=    201216555
 MaxDsk=          -1 SrtSym=           F ITran=            4
 DoSDTr:  NPSUse= 12
 JobTyp=0 Pass  1:  I=   1 to  21.
 (rs|ai) integrals will be sorted in core.
 Complete sort for first half transformation.
 First half transformation complete.
 Begin second half transformation for I=  10.
 Begin second half transformation for I=  20.
 Begin second half transformation for I=  10.
 Begin second half transformation for I=  20.
 Complete sort for second half transformation.
 Second half transformation complete.
 Spin components of T(2) and E(2):
     alpha-alpha T2 =       0.2710654670D-01 E2=     -0.7115219484D-01
     alpha-beta  T2 =       0.1626318563D+00 E2=     -0.4591271691D+00
     beta-beta   T2 =       0.2710654670D-01 E2=     -0.7115219484D-01
 ANorm=    0.1560028814D+01
 E2 =    -0.6014315588D+00 EUMP2 =    -0.57780492655476D+03
 Leave Link  804 at Mon Oct 26 20:24:13 2015, MaxMem=  7340032000 cpu:       184.8
 (Enter /usr/local/gaussian/2009-D.01/g09/l1002.exe)
 Minotr:  Closed shell wavefunction.
          Computing MP2/KS-MP2 derivatives.
          Using Z-Vector for PSCF gradient.
          Skipping F1 and S1 gradient terms here.
          IDoAtm=11111111111
          Frozen-core window.
          Using MO integrals in the linear equations.
          Forming densities via direct SCF.
          Differentiating once with respect to electric field.
                with respect to dipole field.
          Differentiating once with respect to nuclear coordinates.
          Requested convergence is 1.0D-10 RMS, and 1.0D-09 maximum.
          NewPWx=F KeepS1=T KeepF1=T KeepIn=T MapXYZ=F SortEE=F KeepMc=T.
          MDV=    7340031735 using IRadAn=       0.
          Solving linear equations separately, MaxMat=       0.
          There are     1 degrees of freedom in the 1st order CPHF.  IDoFFX=0 NUNeed=     1.
 FoFJK:  IHMeth= 1 ICntrl=       0 DoSepK=F KAlg= 0 I1Cent=   0 FoldK=F
 IRaf= 990000000 NMat=   1 IRICut=       1 DoRegI=T DoRafI=F ISym2E= 0.
 FoFCou: FMM=F IPFlag=           0 FMFlag=      100000 FMFlg1=           0
         NFxFlg=           0 DoJE=F BraDBF=F KetDBF=F FulRan=T
         wScrn=  0.000000 ICntrl=       0 IOpCl=  0 I1Cent=           0 NGrid=           0
         NMat0=    1 NMatS0=      1 NMatT0=    0 NMatD0=    1 NMtDS0=    0 NMtDT0=    0
 Symmetry not used in FoFCou.
 LinEq1:  Iter=  0 NonCon=     1 RMS=2.83D-03 Max=2.80D-02 NDo=     1
 LinEq1:  Iter=  1 NonCon=     1 RMS=6.28D-04 Max=7.61D-03 NDo=     1
 LinEq1:  Iter=  2 NonCon=     1 RMS=1.88D-04 Max=2.05D-03 NDo=     1
 LinEq1:  Iter=  3 NonCon=     1 RMS=3.60D-05 Max=2.79D-04 NDo=     1
 LinEq1:  Iter=  4 NonCon=     1 RMS=1.07D-05 Max=1.13D-04 NDo=     1
 LinEq1:  Iter=  5 NonCon=     1 RMS=2.75D-06 Max=3.16D-05 NDo=     1
 LinEq1:  Iter=  6 NonCon=     1 RMS=8.14D-07 Max=1.11D-05 NDo=     1
 LinEq1:  Iter=  7 NonCon=     1 RMS=1.95D-07 Max=1.58D-06 NDo=     1
 LinEq1:  Iter=  8 NonCon=     1 RMS=4.80D-08 Max=4.65D-07 NDo=     1
 LinEq1:  Iter=  9 NonCon=     1 RMS=1.22D-08 Max=1.22D-07 NDo=     1
 LinEq1:  Iter= 10 NonCon=     1 RMS=3.64D-09 Max=2.79D-08 NDo=     1
 LinEq1:  Iter= 11 NonCon=     1 RMS=7.44D-10 Max=5.95D-09 NDo=     1
 LinEq1:  Iter= 12 NonCon=     1 RMS=1.52D-10 Max=1.25D-09 NDo=     1
 LinEq1:  Iter= 13 NonCon=     0 RMS=3.64D-11 Max=3.37D-10 NDo=     1
 Linear equations converged to 1.000D-10 1.000D-09 after    13 iterations.
 End of Minotr F.D. properties file   721 does not exist.
 End of Minotr F.D. properties file   722 does not exist.
 End of Minotr F.D. properties file   788 does not exist.
 Leave Link 1002 at Mon Oct 26 20:24:18 2015, MaxMem=  7340032000 cpu:        49.2
 (Enter /usr/local/gaussian/2009-D.01/g09/l1102.exe)
 Use density number 2.
 Symmetrizing basis deriv contribution to polar:
 IMax=3 JMax=2 DiffMx= 0.00D+00
 Leave Link 1102 at Mon Oct 26 20:24:18 2015, MaxMem=  7340032000 cpu:         0.3
 (Enter /usr/local/gaussian/2009-D.01/g09/l1110.exe)
 Forming Gx(P) for generalized density number  2 NAtomX=    11.
 Integral derivatives from FoFJK, PRISM(SPDF).
 Do as many integral derivatives as possible in FoFJK.
 G2DrvN: MDV=    7340031808.
 G2DrvN: will do    12 centers at a time, making    1 passes.
 Calling FoFCou, ICntrl=  3107 FMM=F I1Cent=   0 AccDes= 0.00D+00.
 FoFJK:  IHMeth= 1 ICntrl=    3107 DoSepK=F KAlg= 0 I1Cent=   0 FoldK=F
 IRaf=         0 NMat=   1 IRICut=       1 DoRegI=T DoRafI=F ISym2E= 0.
 FoFCou: FMM=F IPFlag=           0 FMFlag=      100000 FMFlg1=           0
         NFxFlg=           0 DoJE=F BraDBF=F KetDBF=F FulRan=T
         wScrn=  0.000000 ICntrl=    3107 IOpCl=  0 I1Cent=           0 NGrid=           0
         NMat0=    1 NMatS0=      1 NMatT0=    0 NMatD0=    1 NMtDS0=    0 NMtDT0=    0
 Symmetry not used in FoFCou.
 End of G2Drv F.D. properties file   721 does not exist.
 End of G2Drv F.D. properties file   722 does not exist.
 End of G2Drv F.D. properties file   788 does not exist.
 Leave Link 1110 at Mon Oct 26 20:24:20 2015, MaxMem=  7340032000 cpu:        25.5
 (Enter /usr/local/gaussian/2009-D.01/g09/l1112.exe)
 MP22nd: MDV=    7340032000
 This link is doing NAtomX=    11 total of    36 degrees of freedom.
 Using ON3 I/O method in MakUI.
 Frozen-core window:  NFC=   8 NFV=   0.
 Using Ix for Sx.
 Use MO integrals over full window.
 Using OV2 memory method for fx*t*t/D, MaxI=    21 DoOO2=F NP=  12.
 R2 and R3 integrals will be kept in memory, NReq=   199169544.
 FoFCou: FMM=F IPFlag=           0 FMFlag=           0 FMFlg1=           0
         NFxFlg=           0 DoJE=F BraDBF=F KetDBF=F FulRan=T
         wScrn=  0.000000 ICntrl=     600 IOpCl=  0 I1Cent=           0 NGrid=           0
         NMat0=    1 NMatS0=      1 NMatT0=    0 NMatD0=    1 NMtDS0=    0 NMtDT0=    0
[...]
     33 -0.474329D-03 -0.125253D-03  0.547536D-04  0.190600D-04 -0.475954D-04
               21            22            23            24            25 
     21  0.242924D+00
     22  0.394216D-03  0.646467D-01
     23 -0.887455D-04 -0.306498D-01  0.140643D+00
     24  0.156628D-02  0.475337D-01 -0.130906D+00  0.241416D+00
     25 -0.345673D-03  0.248422D-03 -0.358370D-02 -0.520649D-02  0.646467D-01
     26 -0.219884D-03 -0.358370D-02  0.940021D-02  0.151400D-01 -0.306498D-01
     27  0.592881D-03  0.520649D-02 -0.151400D-01 -0.198502D-01 -0.475337D-01
     28 -0.525457D-03 -0.224000D-02 -0.351054D-02 -0.209983D-03  0.358785D-03
     29 -0.251948D-03 -0.354908D-02 -0.386650D-02 -0.308455D-03  0.967985D-03
     30  0.547536D-04 -0.139293D-03 -0.513742D-03  0.163303D-02  0.346384D-03
     31 -0.564999D-04  0.358785D-03  0.665132D-03  0.448348D-03 -0.224000D-02
     32  0.621265D-04  0.967985D-03  0.855512D-03  0.200889D-04 -0.354908D-02
     33 -0.112732D-03 -0.346384D-03 -0.405040D-05  0.698578D-03  0.139293D-03
               26            27            28            29            30 
     26  0.140643D+00
     27  0.130906D+00  0.241416D+00
     28  0.665132D-03 -0.448348D-03  0.583867D-01
     29  0.855512D-03 -0.200889D-04 -0.195856D-01  0.141436D+00
     30  0.405040D-05  0.698578D-03  0.303054D-01 -0.136331D+00  0.251915D+00
     31 -0.351054D-02  0.209983D-03  0.240501D-02 -0.303610D-02 -0.316408D-02
     32 -0.386650D-02  0.308455D-03 -0.303610D-02  0.102167D-01  0.154135D-01
     33  0.513742D-03  0.163303D-02  0.316408D-02 -0.154135D-01 -0.185684D-01
               31            32            33 
     31  0.583867D-01
     32 -0.195856D-01  0.141436D+00
     33 -0.303054D-01  0.136331D+00  0.251915D+00
 FormGI is forming the generalized inverse of G from B-inverse, IUseBI=4.
 Leave Link  716 at Mon Oct 26 20:25:37 2015, MaxMem=  7340032000 cpu:         9.3
 (Enter /usr/local/gaussian/2009-D.01/g09/l103.exe)

 GradGradGradGradGradGradGradGradGradGradGradGradGradGradGradGradGradGrad
 Berny optimization.
 Red2BG is reusing G-inverse.
 Internal  Forces:  Max     0.000070357 RMS     0.000019758
 Search for a local minimum.
 Step number   1 out of a maximum of    2
 All quantities printed in internal units (Hartrees-Bohrs-Radians)
 Second derivative matrix not updated -- analytic derivatives used.
 ITU=  0
     Eigenvalues ---    0.00213   0.00326   0.03547   0.03842   0.04439
     Eigenvalues ---    0.04481   0.04531   0.06150   0.06608   0.10133
     Eigenvalues ---    0.11893   0.12402   0.13313   0.14840   0.16196
     Eigenvalues ---    0.17567   0.21448   0.24679   0.30700   0.32295
     Eigenvalues ---    0.34176   0.34445   0.34605   0.34618   0.34798
     Eigenvalues ---    0.35008   0.35090
 Angle between quadratic step and forces=  36.64 degrees.
 Linear search not attempted -- first point.
 Iteration  1 RMS(Cart)=  0.00015539 RMS(Int)=  0.00000004
 Iteration  2 RMS(Cart)=  0.00000004 RMS(Int)=  0.00000002
 ITry= 1 IFail=0 DXMaxC= 3.64D-04 DCOld= 1.00D+10 DXMaxT= 3.00D-01 DXLimC= 3.00D+00 Rises=F
 Variable       Old X    -DE/DX   Delta X   Delta X   Delta X     New X
                                 (Linear)    (Quad)   (Total)
    R1        2.89986   0.00007   0.00000   0.00037   0.00037   2.90023
    R2        2.07972   0.00001   0.00000   0.00000   0.00000   2.07973
    R3        2.08281   0.00000   0.00000  -0.00002  -0.00002   2.08278
    R4        2.08281   0.00000   0.00000  -0.00002  -0.00002   2.08278
    R5        2.87748   0.00002   0.00000   0.00010   0.00010   2.87758
    R6        2.08245  -0.00001   0.00000  -0.00004  -0.00004   2.08240
    R7        2.08245  -0.00001   0.00000  -0.00004  -0.00004   2.08240
    R8        3.41919   0.00005   0.00000   0.00028   0.00028   3.41947
    R9        2.07756   0.00000   0.00000  -0.00001  -0.00001   2.07755
   R10        2.07756   0.00000   0.00000  -0.00001  -0.00001   2.07755
    A1        1.93350  -0.00004   0.00000  -0.00040  -0.00040   1.93311
    A2        1.94004  -0.00003   0.00000  -0.00023  -0.00023   1.93981
    A3        1.94004  -0.00003   0.00000  -0.00023  -0.00023   1.93981
    A4        1.88163   0.00004   0.00000   0.00030   0.00030   1.88193
    A5        1.88163   0.00004   0.00000   0.00030   0.00030   1.88193
    A6        1.88463   0.00003   0.00000   0.00031   0.00031   1.88494
    A7        1.93124   0.00001   0.00000  -0.00011  -0.00011   1.93113
    A8        1.92740   0.00000   0.00000  -0.00010  -0.00010   1.92730
    A9        1.92740   0.00000   0.00000  -0.00010  -0.00010   1.92730
   A10        1.90282  -0.00001   0.00000  -0.00011  -0.00011   1.90270
   A11        1.90282  -0.00001   0.00000  -0.00011  -0.00011   1.90270
   A12        1.87092   0.00002   0.00000   0.00054   0.00054   1.87146
   A13        1.94248  -0.00001   0.00000  -0.00011  -0.00011   1.94237
   A14        1.94913  -0.00002   0.00000  -0.00006  -0.00006   1.94906
   A15        1.94913  -0.00002   0.00000  -0.00006  -0.00006   1.94906
   A16        1.85554   0.00001   0.00000  -0.00005  -0.00005   1.85548
   A17        1.85554   0.00001   0.00000  -0.00005  -0.00005   1.85548
   A18        1.90735   0.00003   0.00000   0.00035   0.00035   1.90770
    D1        3.14159   0.00000   0.00000   0.00000   0.00000   3.14159
    D2       -1.03313  -0.00001   0.00000  -0.00027  -0.00027  -1.03341
    D3        1.03313   0.00001   0.00000   0.00027   0.00027   1.03341
    D4       -1.04992   0.00000   0.00000  -0.00004  -0.00004  -1.04996
    D5        1.05854  -0.00001   0.00000  -0.00031  -0.00031   1.05823
    D6        3.12480   0.00001   0.00000   0.00024   0.00024   3.12504
    D7        1.04992   0.00000   0.00000   0.00004   0.00004   1.04996
    D8       -3.12480  -0.00001   0.00000  -0.00024  -0.00024  -3.12504
    D9       -1.05854   0.00001   0.00000   0.00031   0.00031  -1.05823
   D10        3.14159   0.00000   0.00000   0.00000   0.00000   3.14159
   D11       -1.07085  -0.00001   0.00000  -0.00018  -0.00018  -1.07104
   D12        1.07085   0.00001   0.00000   0.00018   0.00018   1.07104
   D13        1.01859   0.00001   0.00000   0.00026   0.00026   1.01885
   D14        3.08933   0.00000   0.00000   0.00008   0.00008   3.08941
   D15       -1.05215   0.00001   0.00000   0.00044   0.00044  -1.05171
   D16       -1.01859  -0.00001   0.00000  -0.00026  -0.00026  -1.01885
   D17        1.05215  -0.00001   0.00000  -0.00044  -0.00044   1.05171
   D18       -3.08933   0.00000   0.00000  -0.00008  -0.00008  -3.08941
         Item               Value     Threshold  Converged?
 Maximum Force            0.000070     0.000450     YES
 RMS     Force            0.000020     0.000300     YES
 Maximum Displacement     0.000364     0.001800     YES
 RMS     Displacement     0.000155     0.001200     YES
 Predicted change in Energy=-8.229630D-08
 Optimization completed.
    -- Stationary point found.
                           ----------------------------
                           !   Optimized Parameters   !
                           ! (Angstroms and Degrees)  !
 --------------------------                            --------------------------
 ! Name  Definition              Value          Derivative Info.                !
 --------------------------------------------------------------------------------
 ! R1    R(1,2)                  1.5345         -DE/DX =    0.0001              !
 ! R2    R(1,5)                  1.1005         -DE/DX =    0.0                 !
 ! R3    R(1,6)                  1.1022         -DE/DX =    0.0                 !
 ! R4    R(1,7)                  1.1022         -DE/DX =    0.0                 !
 ! R5    R(2,3)                  1.5227         -DE/DX =    0.0                 !
 ! R6    R(2,8)                  1.102          -DE/DX =    0.0                 !
 ! R7    R(2,9)                  1.102          -DE/DX =    0.0                 !
 ! R8    R(3,4)                  1.8094         -DE/DX =    0.0                 !
 ! R9    R(3,10)                 1.0994         -DE/DX =    0.0                 !
 ! R10   R(3,11)                 1.0994         -DE/DX =    0.0                 !
 ! A1    A(2,1,5)              110.7815         -DE/DX =    0.0                 !
 ! A2    A(2,1,6)              111.1564         -DE/DX =    0.0                 !
 ! A3    A(2,1,7)              111.1564         -DE/DX =    0.0                 !
 ! A4    A(5,1,6)              107.8092         -DE/DX =    0.0                 !
 ! A5    A(5,1,7)              107.8092         -DE/DX =    0.0                 !
 ! A6    A(6,1,7)              107.9815         -DE/DX =    0.0                 !
 ! A7    A(1,2,3)              110.652          -DE/DX =    0.0                 !
 ! A8    A(1,2,8)              110.4317         -DE/DX =    0.0                 !
 ! A9    A(1,2,9)              110.4317         -DE/DX =    0.0                 !
 ! A10   A(3,2,8)              109.0233         -DE/DX =    0.0                 !
 ! A11   A(3,2,9)              109.0233         -DE/DX =    0.0                 !
 ! A12   A(8,2,9)              107.1959         -DE/DX =    0.0                 !
 ! A13   A(2,3,4)              111.2961         -DE/DX =    0.0                 !
 ! A14   A(2,3,10)             111.6767         -DE/DX =    0.0                 !
 ! A15   A(2,3,11)             111.6767         -DE/DX =    0.0                 !
 ! A16   A(4,3,10)             106.3143         -DE/DX =    0.0                 !
 ! A17   A(4,3,11)             106.3143         -DE/DX =    0.0                 !
 ! A18   A(10,3,11)            109.283          -DE/DX =    0.0                 !
 ! D1    D(5,1,2,3)            180.0            -DE/DX =    0.0                 !
 ! D2    D(5,1,2,8)            -59.1941         -DE/DX =    0.0                 !
 ! D3    D(5,1,2,9)             59.1941         -DE/DX =    0.0                 !
 ! D4    D(6,1,2,3)            -60.1562         -DE/DX =    0.0                 !
 ! D5    D(6,1,2,8)             60.6498         -DE/DX =    0.0                 !
 ! D6    D(6,1,2,9)            179.0379         -DE/DX =    0.0                 !
 ! D7    D(7,1,2,3)             60.1562         -DE/DX =    0.0                 !
 ! D8    D(7,1,2,8)           -179.0379         -DE/DX =    0.0                 !
 ! D9    D(7,1,2,9)            -60.6498         -DE/DX =    0.0                 !
 ! D10   D(1,2,3,4)            180.0            -DE/DX =    0.0                 !
 ! D11   D(1,2,3,10)           -61.3553         -DE/DX =    0.0                 !
 ! D12   D(1,2,3,11)            61.3553         -DE/DX =    0.0                 !
 ! D13   D(8,2,3,4)             58.3609         -DE/DX =    0.0                 !
 ! D14   D(8,2,3,10)           177.0056         -DE/DX =    0.0                 !
 ! D15   D(8,2,3,11)           -60.2838         -DE/DX =    0.0                 !
 ! D16   D(9,2,3,4)            -58.3609         -DE/DX =    0.0                 !
 ! D17   D(9,2,3,10)            60.2838         -DE/DX =    0.0                 !
 ! D18   D(9,2,3,11)          -177.0056         -DE/DX =    0.0                 !
 --------------------------------------------------------------------------------
 GradGradGradGradGradGradGradGradGradGradGradGradGradGradGradGradGradGrad

 Leave Link  103 at Mon Oct 26 20:25:37 2015, MaxMem=  7340032000 cpu:         4.9
 (Enter /usr/local/gaussian/2009-D.01/g09/l9999.exe)
 1\1\ WCSS.PL-BEM-WN0811\Freq\RMP2-FC\Aug-CC-pVDZ\C3H7Cl1\ROOT\26-Oct-2
 015\0\\#P Geom=AllCheck Guess=TCheck SCRF=Check GenChk RMP2(FC)/Aug-CC
 -pVDZ Freq\\CH3CH2CH2Cl - optimization and frequencies\\0,1\C,-2.38205
 8,-0.214688,0.\C,-0.905909,-0.63396,0.\C,0.,0.589942,0.\Cl,1.745961,0.
 115182,0.\H,-3.03881,-1.097791,0.\H,-2.624955,0.38605,0.891573\H,-2.62
 4955,0.38605,-0.891573\H,-0.680351,-1.2478,0.886956\H,-0.680351,-1.247
 8,-0.886956\H,-0.152058,1.207714,-0.89661\H,-0.152058,1.207714,0.89661
 \\Version=ES64L-G09RevD.01\HF=-577.203495\MP2=-577.8049266\RMSD=7.451e
 -10\RMSF=4.222e-05\ZeroPoint=0.0955023\Thermal=0.1092749\Dipole=-0.880
 5592,0.1108203,0.\DipoleDeriv=0.0103532,-0.005772,0.,-0.0996999,0.0823
 564,0.,0.,0.,0.125875,-0.0060581,-0.0213488,0.,0.0619486,0.0585868,0.,
 0.,0.,0.1121943,0.8161651,-0.0460983,0.,-0.1056755,0.1559088,0.,0.,0.,
 0.1553041,-0.6413401,-0.0081258,0.,0.0661511,-0.1951607,0.,0.,0.,-0.18
 33115,-0.0858097,-0.0672454,0.,-0.1015046,-0.0583485,0.,0.,0.,0.069219
 4,0.0206555,0.0113186,-0.0012235,0.0551502,-0.0039977,-0.0848776,0.047
 2957,-0.0918796,-0.0717765,0.0206555,0.0113186,0.0012235,0.0551502,-0.
 0039977,0.0848776,-0.0472957,0.0918796,-0.0717765,-0.0010615,0.0263709
 ,-0.0401866,0.0018964,-0.0115092,0.059379,-0.032334,0.0854246,-0.05029
 68,-0.0010615,0.0263709,0.0401866,0.0018964,-0.0115092,-0.059379,0.032
 334,-0.0854246,-0.0502968,-0.0662492,0.0366057,-0.0324355,0.0323436,-0
 .0061644,0.0494033,-0.0315918,0.078838,-0.0175674,-0.0662492,0.0366057
 ,0.0324355,0.0323436,-0.0061644,-0.0494033,0.0315918,-0.078838,-0.0175
 674\Polar=67.5010883,0.0688506,48.7862367,0.,0.,45.9073998\PG=CS [SG(C
 3H1Cl1),X(H6)]\NImag=0\\0.48799288,0.02964293,0.56928365,0.,0.,0.57343
 096,-0.19566377,0.03637796,0.,0.47022675,0.03793015,-0.08898629,0.,-0.
 02733796,0.54770825,0.,0.,-0.07837215,0.,0.,0.61106920,-0.02685376,-0.
 02105867,0.,-0.10381254,-0.07054867,0.,0.34019613,0.00214623,0.0082025
 5,0.,-0.06750053,-0.17991788,0.,0.01345910,0.51528718,0.,0.,-0.0007018
 0,0.,0.,-0.08134390,0.,0.,0.60092189,-0.00175195,-0.00875991,0.,-0.035
 34262,0.01331534,0.,-0.12457534,0.03295831,0.,0.20131444,-0.00167531,-
 0.00177500,0.,-0.01684737,0.00688464,0.,0.03223212,-0.04342421,0.,-0.0
 4749380,0.04058351,0.,0.,0.00107140,0.,0.,0.00036897,0.,0.,-0.03487814
 ,0.,0.,0.02287108,-0.13859892,-0.13199632,0.,-0.01833406,-0.02732546,0
 .,-0.00392909,0.00424413,0.,-0.00256729,-0.00075896,0.,0.15352355,-0.1
 3360529,-0.22772507,0.,0.00917265,0.00889876,0.,0.00126013,-0.00039958
 ,0.,0.00082840,0.00028629,0.,0.14240867,0.24406704,0.,0.,-0.04470104,0
 .,0.,-0.00139685,0.,0.,0.00019894,0.,0.,0.00036958,0.,0.,0.04512342,-0
 .05636255,0.03013038,0.04509909,-0.00733918,0.01745128,0.02749845,0.00
 104884,0.00161877,0.00134824,0.00050540,-0.00039447,-0.00053640,0.0034
 7009,-0.00961616,-0.01638545,0.06400275,0.03043856,-0.12585733,-0.1194
 9657,0.00114557,-0.00566045,-0.00731916,-0.00073694,0.00044821,0.00067
 954,-0.00003355,-0.00000020,0.00013337,0.00672206,-0.01313735,-0.02151
 329,-0.03533871,0.13375995,0.04613123,-0.12010724,-0.22689719,-0.00129
 866,0.00132169,0.00102516,-0.00024958,-0.00003910,0.00004058,-0.000039
 52,0.00018241,0.00010542,0.00007833,0.00205312,0.00007971,-0.05051857,
 0.13159347,0.24292396,-0.05636255,0.03013038,-0.04509909,-0.00733918,0
 .01745128,-0.02749845,0.00104884,0.00161877,-0.00134824,0.00050540,-0.
 00039447,0.00053640,0.00347009,-0.00961616,0.01638545,0.00007886,-0.00
 420237,0.00536336,0.06400275,0.03043856,-0.12585733,0.11949657,0.00114
 557,-0.00566045,0.00731916,-0.00073694,0.00044821,-0.00067954,-0.00003
 355,-0.00000020,-0.00013337,0.00672206,-0.01313735,0.02151329,-0.00420
 237,0.00981953,-0.01550280,-0.03533871,0.13375995,-0.04613123,0.120107
 24,-0.22689719,0.00129866,-0.00132169,0.00102516,0.00024958,0.00003910
 ,0.00004058,0.00003952,-0.00018241,0.00010542,-0.00007833,-0.00205312,
 0.00007971,-0.00536336,0.01550280,-0.01937883,0.05051857,-0.13159347,0
 .24292396,-0.00802427,0.01802861,-0.02666742,-0.05401224,0.03089275,-0
 .04413567,0.00098145,-0.01344614,0.01766554,0.00169513,0.00015516,0.00
 023595,0.00131830,-0.00055034,-0.00009283,0.00143517,-0.00019692,0.000
 34567,-0.00640745,0.00193148,0.00039422,0.06464670,0.00119104,-0.00421
 600,0.00577382,0.02888676,-0.12723615,0.11796538,0.00520401,-0.0173520
 6,0.02397042,0.00074388,0.00129508,-0.00086823,-0.00017828,0.00036395,
 -0.00040853,-0.00024468,-0.00023714,0.00021988,0.00147616,0.00034990,-
 0.00008875,-0.03064980,0.14064320,0.00168420,-0.00155744,0.00137088,-0
 .04326024,0.12013578,-0.22756570,-0.00123539,-0.00129677,-0.00010301,0
 .00054816,-0.00059697,0.00029331,-0.00038591,-0.00007508,-0.00005212,-
 0.00028252,-0.00002870,0.00059288,0.00036609,-0.00052622,0.00156628,0.
 04753373,-0.13090621,0.24141604,-0.00802427,0.01802861,0.02666742,-0.0
 5401224,0.03089275,0.04413567,0.00098145,-0.01344614,-0.01766554,0.001
 69513,0.00015516,-0.00023595,0.00131830,-0.00055034,0.00009283,-0.0064
 0745,0.00193148,-0.00039422,0.00143517,-0.00019692,-0.00034567,0.00024
 842,-0.00358370,-0.00520649,0.06464670,0.00119104,-0.00421600,-0.00577
 382,0.02888676,-0.12723615,-0.11796538,0.00520401,-0.01735206,-0.02397
 042,0.00074388,0.00129508,0.00086823,-0.00017828,0.00036395,0.00040853
 ,0.00147616,0.00034990,0.00008875,-0.00024468,-0.00023714,-0.00021988,
 -0.00358370,0.00940021,0.01513999,-0.03064980,0.14064320,-0.00168420,0
 .00155744,0.00137088,0.04326024,-0.12013578,-0.22756570,0.00123539,0.0
 0129677,-0.00010301,-0.00054816,0.00059697,0.00029331,0.00038591,0.000
 07508,-0.00005212,-0.00036609,0.00052622,0.00156628,0.00028252,0.00002
 870,0.00059288,0.00520649,-0.01513999,-0.01985017,-0.04753373,0.130906
 21,0.24141604,0.00182458,-0.00026198,0.00064423,0.00281454,-0.01136073
 ,0.01609071,-0.04254300,0.01917376,-0.02991182,-0.02073915,0.01751096,
 -0.01901698,0.00016451,0.00013422,-0.00014832,-0.00008554,0.00008729,0
 .00005650,-0.00034639,0.00018355,-0.00052546,-0.00224000,-0.00351054,-
 0.00020998,0.00035879,0.00066513,-0.00044835,0.05838666,0.00115104,0.0
 0057341,-0.00000694,0.00303530,-0.01439714,0.02298465,0.01786092,-0.13
 297018,0.12605030,0.00386551,-0.00257249,0.00380124,0.00017019,0.00020
 968,-0.00044193,-0.00017974,0.00002674,-0.00006213,-0.00070046,0.00048
 815,-0.00025195,-0.00354908,-0.00386650,-0.00030845,0.00096799,0.00085
 551,-0.00002009,-0.01958556,0.14143612,0.00015548,-0.00010411,0.000162
 61,-0.00115463,-0.00203542,0.00137790,-0.03033634,0.12671602,-0.242036
 07,0.00336158,-0.00308639,0.00469982,0.00017025,-0.00023554,0.00017537
 ,-0.00001906,0.00004760,-0.00011273,0.00047433,0.00012525,0.00005475,-
 0.00013929,-0.00051374,0.00163303,0.00034638,0.00000405,0.00069858,0.0
 3030539,-0.13633121,0.25191516,0.00182458,-0.00026198,-0.00064423,0.00
 281454,-0.01136073,-0.01609071,-0.04254300,0.01917376,0.02991182,-0.02
 073915,0.01751096,0.01901698,0.00016451,0.00013422,0.00014832,-0.00034
 639,0.00018355,0.00052546,-0.00008554,0.00008729,-0.00005650,0.0003587
 9,0.00066513,0.00044835,-0.00224000,-0.00351054,0.00020998,0.00240501,
 -0.00303610,-0.00316408,0.05838666,0.00115104,0.00057341,0.00000694,0.
 00303530,-0.01439714,-0.02298465,0.01786092,-0.13297018,-0.12605030,0.
 00386551,-0.00257249,-0.00380124,0.00017019,0.00020968,0.00044193,-0.0
 0070046,0.00048815,0.00025195,-0.00017974,0.00002674,0.00006213,0.0009
 6799,0.00085551,0.00002009,-0.00354908,-0.00386650,0.00030845,-0.00303
 610,0.01021669,0.01541350,-0.01958556,0.14143612,-0.00015548,0.0001041
 1,0.00016261,0.00115463,0.00203542,0.00137790,0.03033634,-0.12671602,-
 0.24203607,-0.00336158,0.00308639,0.00469982,-0.00017025,0.00023554,0.
 00017537,-0.00047433,-0.00012525,0.00005475,0.00001906,-0.00004760,-0.
 00011273,-0.00034638,-0.00000405,0.00069858,0.00013929,0.00051374,0.00
 163303,0.00316408,-0.01541350,-0.01856844,-0.03030539,0.13633121,0.251
 91516\\0.00014822,-0.00006185,0.,-0.00006767,0.00011358,0.,0.00003016,
 -0.00006945,0.,-0.00004351,0.00001686,0.,-0.00002818,0.00002822,0.,-0.
 00002760,0.00000222,-0.00000915,-0.00002760,0.00000222,0.00000915,0.00
 000707,-0.00003504,-0.00001756,0.00000707,-0.00003504,0.00001756,0.000
 00102,0.00001914,0.00001469,0.00000102,0.00001914,-0.00001469\\\@


 IN THE LONG RUN, DIGGING FOR TRUTH HAS ALWAYS PROVED NOT ONLY 
 MORE INTERESTING BUT MORE PROFITABLE THAN DIGGING FOR GOLD.

                             -- GEORGE R. HARRISON
 Job cpu time:       0 days  1 hours  1 minutes  5.0 seconds.
 File lengths (MBytes):  RWF=   3388 Int=      0 D2E=      0 Chk=      4 Scr=      1
 Normal termination of Gaussian 09 at Mon Oct 26 20:25:38 2015.
