 Entering Gaussian System, Link 0=/usr/local/gaussian/2009-D.01/g09/g09
 Initial command:
 /usr/local/gaussian/2009-D.01/g09/l1.exe "/lustre/scratch/tmp/pbs.619715.achilles/Gau-15955.inp" -scrdir="/lustre/scratch/tmp/pbs.619715.achilles/"
 Entering Link 1 = /usr/local/gaussian/2009-D.01/g09/l1.exe PID=     15956.
  
 Copyright (c) 1988,1990,1992,1993,1995,1998,2003,2009,2013,
            Gaussian, Inc.  All Rights Reserved.
  
 This is part of the Gaussian(R) 09 program.  It is based on
 the Gaussian(R) 03 system (copyright 2003, Gaussian, Inc.),
 the Gaussian(R) 98 system (copyright 1998, Gaussian, Inc.),
 the Gaussian(R) 94 system (copyright 1995, Gaussian, Inc.),
 the Gaussian 92(TM) system (copyright 1992, Gaussian, Inc.),
 the Gaussian 90(TM) system (copyright 1990, Gaussian, Inc.),
 the Gaussian 88(TM) system (copyright 1988, Gaussian, Inc.),
 the Gaussian 86(TM) system (copyright 1986, Carnegie Mellon
 University), and the Gaussian 82(TM) system (copyright 1983,
 Carnegie Mellon University). Gaussian is a federally registered
 trademark of Gaussian, Inc.
  
 This software contains proprietary and confidential information,
 including trade secrets, belonging to Gaussian, Inc.
  
 This software is provided under written license and may be
 used, copied, transmitted, or stored only in accord with that
 written license.
  
 The following legend is applicable only to US Government
 contracts under FAR:
  
                    RESTRICTED RIGHTS LEGEND
  
 Use, reproduction and disclosure by the US Government is
 subject to restrictions as set forth in subparagraphs (a)
 and (c) of the Commercial Computer Software - Restricted
 Rights clause in FAR 52.227-19.
  
 Gaussian, Inc.
 340 Quinnipiac St., Bldg. 40, Wallingford CT 06492
  
  
 ---------------------------------------------------------------
 Warning -- This program may not be used in any manner that
 competes with the business of Gaussian, Inc. or will provide
 assistance to any competitor of Gaussian, Inc.  The licensee
 of this program is prohibited from giving any competitor of
 Gaussian, Inc. access to this program.  By using this program,
 the user acknowledges that Gaussian, Inc. is engaged in the
 business of creating and licensing software in the field of
 computational chemistry and represents and warrants to the
 licensee that it is not a competitor of Gaussian, Inc. and that
 it will not use this program in any manner prohibited above.
 ---------------------------------------------------------------
  

 Cite this work as:
 Gaussian 09, Revision D.01,
 M. J. Frisch, G. W. Trucks, H. B. Schlegel, G. E. Scuseria, 
 M. A. Robb, J. R. Cheeseman, G. Scalmani, V. Barone, B. Mennucci, 
 G. A. Petersson, H. Nakatsuji, M. Caricato, X. Li, H. P. Hratchian, 
 A. F. Izmaylov, J. Bloino, G. Zheng, J. L. Sonnenberg, M. Hada, 
 M. Ehara, K. Toyota, R. Fukuda, J. Hasegawa, M. Ishida, T. Nakajima, 
 Y. Honda, O. Kitao, H. Nakai, T. Vreven, J. A. Montgomery, Jr., 
 J. E. Peralta, F. Ogliaro, M. Bearpark, J. J. Heyd, E. Brothers, 
 K. N. Kudin, V. N. Staroverov, T. Keith, R. Kobayashi, J. Normand, 
 K. Raghavachari, A. Rendell, J. C. Burant, S. S. Iyengar, J. Tomasi, 
 M. Cossi, N. Rega, J. M. Millam, M. Klene, J. E. Knox, J. B. Cross, 
 V. Bakken, C. Adamo, J. Jaramillo, R. Gomperts, R. E. Stratmann, 
 O. Yazyev, A. J. Austin, R. Cammi, C. Pomelli, J. W. Ochterski, 
 R. L. Martin, K. Morokuma, V. G. Zakrzewski, G. A. Voth, 
 P. Salvador, J. J. Dannenberg, S. Dapprich, A. D. Daniels, 
 O. Farkas, J. B. Foresman, J. V. Ortiz, J. Cioslowski, 
 and D. J. Fox, Gaussian, Inc., Wallingford CT, 2013.
 
 ******************************************
 Gaussian 09:  ES64L-G09RevD.01 24-Apr-2013
                26-Oct-2015 
 ******************************************
 %nproc=12
 Will use up to   12 processors via shared memory.
 %mem=56000MB
 %chk=CH3CH2CH2Cl_MP2_aug-cc-pVDZ_opt_freq_298K.chk
 -----------------------------------
 #p rmp2/aug-cc-pVDZ opt freq nosymm
 -----------------------------------
 1/18=20,19=15,38=1/1,3;
 2/9=110,12=2,15=1,17=6,18=5,40=1/2;
 3/5=16,7=10,11=1,16=1,25=1,30=1,71=1,116=1/1,2,3;
 4//1;
 5/5=2,38=5/2;
 8/6=4,10=1/1;
 9/15=2,16=-3/6;
 10/5=1,31=1/2;
 6/7=2,8=2,9=2,10=2/1;
 7/12=2,30=1/1,2,3,16;
 1/18=20,19=15/3(2);
 2/9=110,15=1/2;
 99//99;
 2/9=110,15=1/2;
 3/5=16,7=10,11=1,16=1,25=1,30=1,71=1,116=1/1,2,3;
 4/5=5,16=3,69=1/1;
 5/5=2,38=5/2;
 8/6=4,10=1/1;
 9/15=2,16=-3/6;
 10/5=1,31=1/2;
 7/12=2,30=1/1,2,3,16;
 1/18=20,19=15/3(-8);
 2/9=110,15=1/2;
 6/7=2,8=2,9=2,10=2/1;
 99//99;
 Leave Link    1 at Mon Oct 26 20:14:21 2015, MaxMem=  7340032000 cpu:         0.6
 (Enter /usr/local/gaussian/2009-D.01/g09/l101.exe)
 ------------------------------------------
 CH3CH2CH2Cl - optimization and frequencies
 ------------------------------------------
 Symbolic Z-matrix:
 Charge =  0 Multiplicity = 1
 C                    -0.369    -1.867     0. 
 C                    -0.369    -0.327     0. 
 C                    -1.821     0.187     0. 
 Cl                   -1.821     1.947     0. 
 H                     0.659    -2.23      0. 
 H                    -0.883    -2.23      0.89 
 H                    -0.883    -2.23     -0.89 
 H                     0.145     0.037     0.89 
 H                     0.145     0.037    -0.89 
 H                    -2.335    -0.177    -0.89 
 H                    -2.335    -0.177     0.89 
 
 NAtoms=     11 NQM=       11 NQMF=       0 NMMI=      0 NMMIF=      0
                NMic=       0 NMicF=      0.
                    Isotopes and Nuclear Properties:
 (Nuclear quadrupole moments (NQMom) in fm**2, nuclear magnetic moments (NMagM)
  in nuclear magnetons)

  Atom         1           2           3           4           5           6           7           8           9          10
 IAtWgt=          12          12          12          35           1           1           1           1           1           1
 AtmWgt=  12.0000000  12.0000000  12.0000000  34.9688527   1.0078250   1.0078250   1.0078250   1.0078250   1.0078250   1.0078250
 NucSpn=           0           0           0           3           1           1           1           1           1           1
 AtZEff=   0.0000000   0.0000000   0.0000000   0.0000000   0.0000000   0.0000000   0.0000000   0.0000000   0.0000000   0.0000000
 NQMom=    0.0000000   0.0000000   0.0000000  -8.1650000   0.0000000   0.0000000   0.0000000   0.0000000   0.0000000   0.0000000
 NMagM=    0.0000000   0.0000000   0.0000000   0.8218740   2.7928460   2.7928460   2.7928460   2.7928460   2.7928460   2.7928460
 AtZNuc=   6.0000000   6.0000000   6.0000000  17.0000000   1.0000000   1.0000000   1.0000000   1.0000000   1.0000000   1.0000000

  Atom        11
 IAtWgt=           1
 AtmWgt=   1.0078250
 NucSpn=           1
 AtZEff=   0.0000000
 NQMom=    0.0000000
 NMagM=    2.7928460
 AtZNuc=   1.0000000
 Leave Link  101 at Mon Oct 26 20:14:21 2015, MaxMem=  7340032000 cpu:         3.9
 (Enter /usr/local/gaussian/2009-D.01/g09/l103.exe)

 GradGradGradGradGradGradGradGradGradGradGradGradGradGradGradGradGradGrad
 Berny optimization.
 Initialization pass.
                           ----------------------------
                           !    Initial Parameters    !
                           ! (Angstroms and Degrees)  !
 --------------------------                            --------------------------
 ! Name  Definition              Value          Derivative Info.                !
 --------------------------------------------------------------------------------
 ! R1    R(1,2)                  1.54           estimate D2E/DX2                !
 ! R2    R(1,5)                  1.0902         estimate D2E/DX2                !
 ! R3    R(1,6)                  1.09           estimate D2E/DX2                !
 ! R4    R(1,7)                  1.09           estimate D2E/DX2                !
 ! R5    R(2,3)                  1.5403         estimate D2E/DX2                !
 ! R6    R(2,8)                  1.0903         estimate D2E/DX2                !
 ! R7    R(2,9)                  1.0903         estimate D2E/DX2                !
 ! R8    R(3,4)                  1.76           estimate D2E/DX2                !
 ! R9    R(3,10)                 1.0903         estimate D2E/DX2                !
 ! R10   R(3,11)                 1.0903         estimate D2E/DX2                !
 ! A1    A(2,1,5)              109.4488         estimate D2E/DX2                !
 ! A2    A(2,1,6)              109.4529         estimate D2E/DX2                !
 ! A3    A(2,1,7)              109.4529         estimate D2E/DX2                !
 ! A4    A(5,1,6)              109.4978         estimate D2E/DX2                !
 ! A5    A(5,1,7)              109.4978         estimate D2E/DX2                !
 ! A6    A(6,1,7)              109.477          estimate D2E/DX2                !
 ! A7    A(1,2,3)              109.4937         estimate D2E/DX2                !
 ! A8    A(1,2,8)              109.5025         estimate D2E/DX2                !
 ! A9    A(1,2,9)              109.5025         estimate D2E/DX2                !
 ! A10   A(3,2,8)              109.4506         estimate D2E/DX2                !
 ! A11   A(3,2,9)              109.4506         estimate D2E/DX2                !
 ! A12   A(8,2,9)              109.4275         estimate D2E/DX2                !
 ! A13   A(2,3,4)              109.4937         estimate D2E/DX2                !
 ! A14   A(2,3,10)             109.4506         estimate D2E/DX2                !
 ! A15   A(2,3,11)             109.4506         estimate D2E/DX2                !
 ! A16   A(4,3,10)             109.5025         estimate D2E/DX2                !
 ! A17   A(4,3,11)             109.5025         estimate D2E/DX2                !
 ! A18   A(10,3,11)            109.4275         estimate D2E/DX2                !
 ! D1    D(5,1,2,3)            180.0            estimate D2E/DX2                !
 ! D2    D(5,1,2,8)            -59.9924         estimate D2E/DX2                !
 ! D3    D(5,1,2,9)             59.9924         estimate D2E/DX2                !
 ! D4    D(6,1,2,3)            -59.9924         estimate D2E/DX2                !
 ! D5    D(6,1,2,8)             60.0153         estimate D2E/DX2                !
 ! D6    D(6,1,2,9)            180.0            estimate D2E/DX2                !
 ! D7    D(7,1,2,3)             59.9924         estimate D2E/DX2                !
 ! D8    D(7,1,2,8)            180.0            estimate D2E/DX2                !
 ! D9    D(7,1,2,9)            -60.0153         estimate D2E/DX2                !
 ! D10   D(1,2,3,4)            180.0            estimate D2E/DX2                !
 ! D11   D(1,2,3,10)           -59.9606         estimate D2E/DX2                !
 ! D12   D(1,2,3,11)            59.9606         estimate D2E/DX2                !
 ! D13   D(8,2,3,4)             59.9606         estimate D2E/DX2                !
 ! D14   D(8,2,3,10)           180.0            estimate D2E/DX2                !
 ! D15   D(8,2,3,11)           -60.0788         estimate D2E/DX2                !
 ! D16   D(9,2,3,4)            -59.9606         estimate D2E/DX2                !
 ! D17   D(9,2,3,10)            60.0788         estimate D2E/DX2                !
 ! D18   D(9,2,3,11)           180.0            estimate D2E/DX2                !
 --------------------------------------------------------------------------------
 Trust Radius=3.00D-01 FncErr=1.00D-07 GrdErr=1.00D-07
 Number of steps in this run=     56 maximum allowed number of steps=    100.
 GradGradGradGradGradGradGradGradGradGradGradGradGradGradGradGradGradGrad

 Leave Link  103 at Mon Oct 26 20:14:21 2015, MaxMem=  7340032000 cpu:         0.1
 (Enter /usr/local/gaussian/2009-D.01/g09/l202.exe)
                          Input orientation:                          
 ---------------------------------------------------------------------
 Center     Atomic      Atomic             Coordinates (Angstroms)
 Number     Number       Type             X           Y           Z
 ---------------------------------------------------------------------
      1          6           0       -0.369000   -1.867000    0.000000
      2          6           0       -0.369000   -0.327000    0.000000
      3          6           0       -1.821000    0.187000    0.000000
      4         17           0       -1.821000    1.947000    0.000000
      5          1           0        0.659000   -2.230000    0.000000
      6          1           0       -0.883000   -2.230000    0.890000
      7          1           0       -0.883000   -2.230000   -0.890000
      8          1           0        0.145000    0.037000    0.890000
      9          1           0        0.145000    0.037000   -0.890000
     10          1           0       -2.335000   -0.177000   -0.890000
     11          1           0       -2.335000   -0.177000    0.890000
 ---------------------------------------------------------------------
                    Distance matrix (angstroms):
                    1          2          3          4          5
     1  C    0.000000
     2  C    1.540000   0.000000
     3  C    2.515397   1.540292   0.000000
     4  Cl   4.081042   2.698033   1.760000   0.000000
     5  H    1.090208   2.162913   3.462988   4.857749   0.000000
     6  H    1.089984   2.162800   2.741137   4.372559   1.780411
     7  H    1.089984   2.162800   2.741137   4.372559   1.780411
     8  H    2.163680   1.090317   2.163274   2.881901   2.489093
     9  H    2.163680   1.090317   2.163274   2.881901   2.489093
    10  H    2.741050   2.163274   1.090317   2.359591   3.737773
    11  H    2.741050   2.163274   1.090317   2.359591   3.737773
                    6          7          8          9         10
     6  H    0.000000
     7  H    1.780000   0.000000
     8  H    2.489191   3.060143   0.000000
     9  H    3.060143   2.489191   1.780000   0.000000
    10  H    3.080830   2.514580   3.060163   2.489216   0.000000
    11  H    2.514580   3.080830   2.489216   3.060163   1.780000
                   11
    11  H    0.000000
 Symmetry turned off by external request.
 Stoichiometry    C3H7Cl
 Framework group  CS[SG(C3HCl),X(H6)]
 Deg. of freedom    16
 Full point group                 CS      NOp   2
 Rotational constants (GHZ):     25.2695839      2.4372297      2.3206167
 Leave Link  202 at Mon Oct 26 20:14:21 2015, MaxMem=  7340032000 cpu:         0.1
 (Enter /usr/local/gaussian/2009-D.01/g09/l301.exe)
 Standard basis: Aug-CC-pVDZ (5D, 7F)
 Ernie: Thresh=  0.10000D-02 Tol=  0.10000D-05 Strict=F.
 Ernie:  16 primitive shells out of 177 were deleted.
   159 basis functions,   287 primitive gaussians,   167 cartesian basis functions
    21 alpha electrons       21 beta electrons
       nuclear repulsion energy       159.6941952264 Hartrees.
 IExCor=    0 DFT=F Ex=HF Corr=None ExCW=0 ScaHFX=  1.000000
 ScaDFX=  1.000000  1.000000  1.000000  1.000000 ScalE2=  1.000000  1.000000
 IRadAn=      0 IRanWt=     -1 IRanGd=            0 ICorTp=0 IEmpDi=  4
 NAtoms=   11 NActive=   11 NUniq=   11 SFac= 1.00D+00 NAtFMM=   60 NAOKFM=F Big=F
 Integral buffers will be    131072 words long.
 Raffenetti 1 integral format.
 Two-electron integral symmetry is turned off.
 Leave Link  301 at Mon Oct 26 20:14:21 2015, MaxMem=  7340032000 cpu:         0.5
 (Enter /usr/local/gaussian/2009-D.01/g09/l302.exe)
 NPDir=0 NMtPBC=     1 NCelOv=     1 NCel=       1 NClECP=     1 NCelD=      1
         NCelK=      1 NCelE2=     1 NClLst=     1 CellRange=     0.0.
 One-electron integrals computed using PRISM.
 NBasis=   159 RedAO= T EigKep=  5.29D-05  NBF=   159
 NBsUse=   159 1.00D-06 EigRej= -1.00D+00 NBFU=   159
 Leave Link  302 at Mon Oct 26 20:14:21 2015, MaxMem=  7340032000 cpu:         1.8
 (Enter /usr/local/gaussian/2009-D.01/g09/l303.exe)
 DipDrv:  MaxL=1.
 Leave Link  303 at Mon Oct 26 20:14:21 2015, MaxMem=  7340032000 cpu:         0.3
 (Enter /usr/local/gaussian/2009-D.01/g09/l401.exe)
 ExpMin= 2.97D-02 ExpMax= 1.28D+05 ExpMxC= 1.24D+03 IAcc=3 IRadAn=         5 AccDes= 0.00D+00
 Harris functional with IExCor=  205 and IRadAn=       5 diagonalized for initial guess.
 HarFok:  IExCor=  205 AccDes= 0.00D+00 IRadAn=         5 IDoV= 1 UseB2=F ITyADJ=14
 ICtDFT=  3500011 ScaDFX=  1.000000  1.000000  1.000000  1.000000
 FoFCou: FMM=F IPFlag=           0 FMFlag=      100000 FMFlg1=           0
         NFxFlg=           0 DoJE=T BraDBF=F KetDBF=T FulRan=T
         wScrn=  0.000000 ICntrl=     500 IOpCl=  0 I1Cent=   200000004 NGrid=           0
         NMat0=    1 NMatS0=      1 NMatT0=    0 NMatD0=    1 NMtDS0=    0 NMtDT0=    0
 Symmetry not used in FoFCou.
 Harris En= -577.052891960953    
 JPrj=0 DoOrth=F DoCkMO=F.
 Leave Link  401 at Mon Oct 26 20:14:22 2015, MaxMem=  7340032000 cpu:         4.9
 (Enter /usr/local/gaussian/2009-D.01/g09/l502.exe)
 Closed shell SCF:
 Using DIIS extrapolation, IDIIS=  1040.
 Two-electron integral symmetry not used.
 Keep R1 ints in memory in canonical form, NReq=83381537.
 IVT=      105245 IEndB=      105245 NGot=  7340032000 MDV=  7259021196
 LenX=  7259021196 LenY=  7258992866
 Requested convergence on RMS density matrix=1.00D-08 within 128 cycles.
 Requested convergence on MAX density matrix=1.00D-06.
 Requested convergence on             energy=1.00D-06.
 No special actions if energy rises.
 FoFCou: FMM=F IPFlag=           0 FMFlag=           0 FMFlg1=           0
         NFxFlg=           0 DoJE=F BraDBF=F KetDBF=F FulRan=T
         wScrn=  0.000000 ICntrl=     600 IOpCl=  0 I1Cent=           0 NGrid=           0
         NMat0=    1 NMatS0=  12720 NMatT0=    0 NMatD0=    1 NMtDS0=    0 NMtDT0=    0
 Symmetry not used in FoFCou.

 Cycle   1  Pass 1  IDiag  1:
 E= -576.985071464058    
 DIIS: error= 2.67D-02 at cycle   1 NSaved=   1.
 NSaved= 1 IEnMin= 1 EnMin= -576.985071464058     IErMin= 1 ErrMin= 2.67D-02
 ErrMax= 2.67D-02  0.00D+00 EMaxC= 1.00D-01 BMatC= 2.66D-01 BMatP= 2.66D-01
 IDIUse=3 WtCom= 7.33D-01 WtEn= 2.67D-01
 Coeff-Com:  0.100D+01
 Coeff-En:   0.100D+01
 Coeff:      0.100D+01
 Gap=     0.619 Goal=   None    Shift=    0.000
 GapD=    0.619 DampG=2.000 DampE=0.500 DampFc=1.0000 IDamp=-1.
 RMSDP=9.82D-03 MaxDP=1.76D-01              OVMax= 1.26D-01

 Cycle   2  Pass 1  IDiag  1:
 E= -577.155115720327     Delta-E=       -0.170044256269 Rises=F Damp=F
 DIIS: error= 1.75D-02 at cycle   2 NSaved=   2.
 NSaved= 2 IEnMin= 2 EnMin= -577.155115720327     IErMin= 2 ErrMin= 1.75D-02
 ErrMax= 1.75D-02  0.00D+00 EMaxC= 1.00D-01 BMatC= 4.47D-02 BMatP= 2.66D-01
 IDIUse=3 WtCom= 8.25D-01 WtEn= 1.75D-01
 Coeff-Com:  0.250D+00 0.750D+00
 Coeff-En:   0.000D+00 0.100D+01
 Coeff:      0.206D+00 0.794D+00
 Gap=     0.544 Goal=   None    Shift=    0.000
 RMSDP=1.85D-03 MaxDP=3.34D-02 DE=-1.70D-01 OVMax= 5.93D-02

 Cycle   3  Pass 1  IDiag  1:
 E= -577.198913062522     Delta-E=       -0.043797342195 Rises=F Damp=F
 DIIS: error= 3.39D-03 at cycle   3 NSaved=   3.
 NSaved= 3 IEnMin= 3 EnMin= -577.198913062522     IErMin= 3 ErrMin= 3.39D-03
 ErrMax= 3.39D-03  0.00D+00 EMaxC= 1.00D-01 BMatC= 2.25D-03 BMatP= 4.47D-02
 IDIUse=3 WtCom= 9.66D-01 WtEn= 3.39D-02
 Coeff-Com: -0.279D-01 0.132D+00 0.896D+00
 Coeff-En:   0.000D+00 0.000D+00 0.100D+01
 Coeff:     -0.270D-01 0.128D+00 0.899D+00
 Gap=     0.461 Goal=   None    Shift=    0.000
 RMSDP=4.93D-04 MaxDP=9.07D-03 DE=-4.38D-02 OVMax= 1.26D-02

 Cycle   4  Pass 1  IDiag  1:
 E= -577.201512925680     Delta-E=       -0.002599863158 Rises=F Damp=F
 DIIS: error= 6.11D-04 at cycle   4 NSaved=   4.
 NSaved= 4 IEnMin= 4 EnMin= -577.201512925680     IErMin= 4 ErrMin= 6.11D-04
 ErrMax= 6.11D-04  0.00D+00 EMaxC= 1.00D-01 BMatC= 6.16D-05 BMatP= 2.25D-03
 IDIUse=3 WtCom= 9.94D-01 WtEn= 6.11D-03
 Coeff-Com: -0.727D-02-0.883D-02 0.799D-01 0.936D+00
 Coeff-En:   0.000D+00 0.000D+00 0.000D+00 0.100D+01
 Coeff:     -0.722D-02-0.878D-02 0.794D-01 0.937D+00
 Gap=     0.459 Goal=   None    Shift=    0.000
 RMSDP=8.88D-05 MaxDP=1.69D-03 DE=-2.60D-03 OVMax= 2.49D-03

 Cycle   5  Pass 1  IDiag  1:
 E= -577.201605025184     Delta-E=       -0.000092099504 Rises=F Damp=F
 DIIS: error= 2.61D-04 at cycle   5 NSaved=   5.
 NSaved= 5 IEnMin= 5 EnMin= -577.201605025184     IErMin= 5 ErrMin= 2.61D-04
 ErrMax= 2.61D-04  0.00D+00 EMaxC= 1.00D-01 BMatC= 7.37D-06 BMatP= 6.16D-05
 IDIUse=3 WtCom= 9.97D-01 WtEn= 2.61D-03
 Coeff-Com:  0.204D-02-0.174D-01-0.907D-01 0.123D+00 0.983D+00
 Coeff-En:   0.000D+00 0.000D+00 0.000D+00 0.000D+00 0.100D+01
 Coeff:      0.204D-02-0.173D-01-0.905D-01 0.123D+00 0.983D+00
 Gap=     0.458 Goal=   None    Shift=    0.000
 RMSDP=3.91D-05 MaxDP=7.87D-04 DE=-9.21D-05 OVMax= 1.29D-03

 Cycle   6  Pass 1  IDiag  1:
 E= -577.201618802494     Delta-E=       -0.000013777311 Rises=F Damp=F
 DIIS: error= 3.09D-05 at cycle   6 NSaved=   6.
 NSaved= 6 IEnMin= 6 EnMin= -577.201618802494     IErMin= 6 ErrMin= 3.09D-05
 ErrMax= 3.09D-05  0.00D+00 EMaxC= 1.00D-01 BMatC= 2.68D-07 BMatP= 7.37D-06
 IDIUse=1 WtCom= 1.00D+00 WtEn= 0.00D+00
 Coeff-Com:  0.436D-03-0.856D-03-0.879D-02-0.440D-01 0.332D-01 0.102D+01
 Coeff:      0.436D-03-0.856D-03-0.879D-02-0.440D-01 0.332D-01 0.102D+01
 Gap=     0.458 Goal=   None    Shift=    0.000
 RMSDP=9.26D-06 MaxDP=2.14D-04 DE=-1.38D-05 OVMax= 2.47D-04

 Cycle   7  Pass 1  IDiag  1:
 E= -577.201619416470     Delta-E=       -0.000000613976 Rises=F Damp=F
 DIIS: error= 1.15D-05 at cycle   7 NSaved=   7.
 NSaved= 7 IEnMin= 7 EnMin= -577.201619416470     IErMin= 7 ErrMin= 1.15D-05
 ErrMax= 1.15D-05  0.00D+00 EMaxC= 1.00D-01 BMatC= 1.90D-08 BMatP= 2.68D-07
 IDIUse=1 WtCom= 1.00D+00 WtEn= 0.00D+00
 Coeff-Com: -0.835D-04 0.863D-03 0.471D-02-0.495D-02-0.502D-01-0.445D-01
 Coeff-Com:  0.109D+01
 Coeff:     -0.835D-04 0.863D-03 0.471D-02-0.495D-02-0.502D-01-0.445D-01
 Coeff:      0.109D+01
 Gap=     0.458 Goal=   None    Shift=    0.000
 RMSDP=2.77D-06 MaxDP=5.50D-05 DE=-6.14D-07 OVMax= 7.82D-05

 Cycle   8  Pass 1  IDiag  1:
 E= -577.201619467767     Delta-E=       -0.000000051297 Rises=F Damp=F
 DIIS: error= 3.17D-06 at cycle   8 NSaved=   8.
 NSaved= 8 IEnMin= 8 EnMin= -577.201619467767     IErMin= 8 ErrMin= 3.17D-06
 ErrMax= 3.17D-06  0.00D+00 EMaxC= 1.00D-01 BMatC= 2.33D-09 BMatP= 1.90D-08
 IDIUse=1 WtCom= 1.00D+00 WtEn= 0.00D+00
 Coeff-Com: -0.495D-04 0.104D-03 0.107D-02 0.418D-02-0.337D-02-0.107D+00
 Coeff-Com:  0.253D-01 0.108D+01
 Coeff:     -0.495D-04 0.104D-03 0.107D-02 0.418D-02-0.337D-02-0.107D+00
 Coeff:      0.253D-01 0.108D+01
 Gap=     0.458 Goal=   None    Shift=    0.000
 RMSDP=1.08D-06 MaxDP=2.19D-05 DE=-5.13D-08 OVMax= 2.71D-05

 Cycle   9  Pass 1  IDiag  1:
 E= -577.201619474157     Delta-E=       -0.000000006390 Rises=F Damp=F
 DIIS: error= 8.82D-07 at cycle   9 NSaved=   9.
 NSaved= 9 IEnMin= 9 EnMin= -577.201619474157     IErMin= 9 ErrMin= 8.82D-07
 ErrMax= 8.82D-07  0.00D+00 EMaxC= 1.00D-01 BMatC= 1.66D-10 BMatP= 2.33D-09
 IDIUse=1 WtCom= 1.00D+00 WtEn= 0.00D+00
 Coeff-Com:  0.518D-05-0.631D-04-0.353D-03-0.755D-04 0.442D-02 0.107D-01
 Coeff-Com: -0.961D-01-0.791D-01 0.116D+01
 Coeff:      0.518D-05-0.631D-04-0.353D-03-0.755D-04 0.442D-02 0.107D-01
 Coeff:     -0.961D-01-0.791D-01 0.116D+01
 Gap=     0.458 Goal=   None    Shift=    0.000
 RMSDP=3.48D-07 MaxDP=8.27D-06 DE=-6.39D-09 OVMax= 1.08D-05

 Cycle  10  Pass 1  IDiag  1:
 E= -577.201619474687     Delta-E=       -0.000000000529 Rises=F Damp=F
 DIIS: error= 2.28D-07 at cycle  10 NSaved=  10.
 NSaved=10 IEnMin=10 EnMin= -577.201619474687     IErMin=10 ErrMin= 2.28D-07
 ErrMax= 2.28D-07  0.00D+00 EMaxC= 1.00D-01 BMatC= 1.11D-11 BMatP= 1.66D-10
 IDIUse=1 WtCom= 1.00D+00 WtEn= 0.00D+00
 Coeff-Com:  0.408D-05-0.755D-05-0.837D-04-0.432D-03 0.375D-03 0.892D-02
 Coeff-Com: -0.297D-02-0.883D-01 0.449D-01 0.104D+01
 Coeff:      0.408D-05-0.755D-05-0.837D-04-0.432D-03 0.375D-03 0.892D-02
 Coeff:     -0.297D-02-0.883D-01 0.449D-01 0.104D+01
 Gap=     0.458 Goal=   None    Shift=    0.000
 RMSDP=8.68D-08 MaxDP=1.84D-06 DE=-5.29D-10 OVMax= 2.10D-06

 Cycle  11  Pass 1  IDiag  1:
 E= -577.201619474704     Delta-E=       -0.000000000017 Rises=F Damp=F
 DIIS: error= 4.62D-08 at cycle  11 NSaved=  11.
 NSaved=11 IEnMin=11 EnMin= -577.201619474704     IErMin=11 ErrMin= 4.62D-08
 ErrMax= 4.62D-08  0.00D+00 EMaxC= 1.00D-01 BMatC= 4.29D-13 BMatP= 1.11D-11
 IDIUse=1 WtCom= 1.00D+00 WtEn= 0.00D+00
 Coeff-Com: -0.672D-06 0.499D-05 0.306D-04 0.940D-05-0.305D-03-0.990D-03
 Coeff-Com:  0.668D-02 0.518D-02-0.700D-01-0.584D-03 0.106D+01
 Coeff:     -0.672D-06 0.499D-05 0.306D-04 0.940D-05-0.305D-03-0.990D-03
 Coeff:      0.668D-02 0.518D-02-0.700D-01-0.584D-03 0.106D+01
 Gap=     0.458 Goal=   None    Shift=    0.000
 RMSDP=2.11D-08 MaxDP=4.70D-07 DE=-1.72D-11 OVMax= 4.50D-07

 Cycle  12  Pass 1  IDiag  1:
 E= -577.201619474707     Delta-E=       -0.000000000003 Rises=F Damp=F
 DIIS: error= 1.08D-08 at cycle  12 NSaved=  12.
 NSaved=12 IEnMin=12 EnMin= -577.201619474707     IErMin=12 ErrMin= 1.08D-08
 ErrMax= 1.08D-08  0.00D+00 EMaxC= 1.00D-01 BMatC= 2.49D-14 BMatP= 4.29D-13
 IDIUse=1 WtCom= 1.00D+00 WtEn= 0.00D+00
 Coeff-Com: -0.240D-07-0.606D-06-0.246D-05 0.198D-04 0.423D-04-0.245D-03
 Coeff-Com: -0.101D-02 0.303D-02 0.101D-01-0.497D-01-0.173D+00 0.121D+01
 Coeff:     -0.240D-07-0.606D-06-0.246D-05 0.198D-04 0.423D-04-0.245D-03
 Coeff:     -0.101D-02 0.303D-02 0.101D-01-0.497D-01-0.173D+00 0.121D+01
 Gap=     0.458 Goal=   None    Shift=    0.000
 RMSDP=4.41D-09 MaxDP=1.01D-07 DE=-3.07D-12 OVMax= 1.67D-07

 SCF Done:  E(RHF) =  -577.201619475     A.U. after   12 cycles
            NFock= 12  Conv=0.44D-08     -V/T= 2.0002
 KE= 5.771076815175D+02 PE=-1.687171913474D+03 EE= 3.731684172552D+02
 Leave Link  502 at Mon Oct 26 20:14:25 2015, MaxMem=  7340032000 cpu:        15.9
 (Enter /usr/local/gaussian/2009-D.01/g09/l801.exe)
 ExpMin= 2.97D-02 ExpMax= 1.28D+05 ExpMxC= 1.24D+03 IAcc=3 IRadAn=         5 AccDes= 0.00D+00
 HarFok:  IExCor=  205 AccDes= 0.00D+00 IRadAn=         5 IDoV=-2 UseB2=F ITyADJ=14
 ICtDFT= 12500011 ScaDFX=  1.000000  1.000000  1.000000  1.000000
 Largest valence mixing into a core orbital is  2.89D-04
 Largest core mixing into a valence orbital is  9.56D-05
 Range of M.O.s used for correlation:     9   159
 NBasis=   159 NAE=    21 NBE=    21 NFC=     8 NFV=     0
 NROrb=    151 NOA=    13 NOB=    13 NVA=   138 NVB=   138

 **** Warning!!: The largest alpha MO coefficient is  0.38634129D+02

 Leave Link  801 at Mon Oct 26 20:14:25 2015, MaxMem=  7340032000 cpu:         0.9
 (Enter /usr/local/gaussian/2009-D.01/g09/l906.exe)
 Frozen-core derivative calculation, NFC=   8 NFV=   0.
 FulOut=F Deriv=T AODrv=T NAtomX=    11
   MMem=        3094  MDisk=          13 MDiskD=          13
  W3Min=      557613 MinDsk=      876316 NBas6D=         167
 NBas2D=       14229    NTT=       14028    LW2=     2040000
    MDV=  7339637011 MDiskM=      610249 NBas2p=       14196
 Fully direct method using O(ONN) memory.
 IMap=   1   2   3   4   5   6   7   8   9  10  11  12  13  14  15  16  17  18  19  20
 IMap=  21
 JobTyp=1 Pass  1:  I=   9 to  21 NPSUse= 12 ParTrn=T ParDer=T DoDerP=T.
 Spin components of T(2) and E(2):
     alpha-alpha T2 =       0.2695545159D-01 E2=     -0.7124159121D-01
     alpha-beta  T2 =       0.1610202229D+00 E2=     -0.4582902344D+00
     beta-beta   T2 =       0.2695545159D-01 E2=     -0.7124159121D-01
 The integrals were generated   1 times.
 ANorm=    0.1102239142D+01
 E2 =    -0.6007734168D+00 EUMP2 =    -0.57780239289149D+03
 Leave Link  906 at Mon Oct 26 20:14:33 2015, MaxMem=  7340032000 cpu:        95.8
 (Enter /usr/local/gaussian/2009-D.01/g09/l1002.exe)
 Minotr:  Closed shell wavefunction.
          Computing MP2/KS-MP2 derivatives.
          Using Z-Vector for PSCF gradient.
          Skipping F1 and S1 gradient terms here.
          IDoAtm=11111111111
          Frozen-core window.
          Direct CPHF calculation.
          Differentiating once with respect to electric field.
                with respect to dipole field.
          Differentiating once with respect to nuclear coordinates.
          Requested convergence is 1.0D-10 RMS, and 1.0D-09 maximum.
          NewPWx=F KeepS1=T KeepF1=T KeepIn=T MapXYZ=F SortEE=F KeepMc=T.
          MDV=    7340031735 using IRadAn=       0.
 Keep R1 ints in memory in canonical form, NReq=83277870.
 FoFCou: FMM=F IPFlag=           0 FMFlag=           0 FMFlg1=           0
         NFxFlg=           0 DoJE=F BraDBF=F KetDBF=F FulRan=T
         wScrn=  0.000000 ICntrl=     600 IOpCl=  0 I1Cent=           0 NGrid=           0
         NMat0=    1 NMatS0=  12720 NMatT0=    0 NMatD0=    1 NMtDS0=    0 NMtDT0=    0
 Symmetry not used in FoFCou.
          Solving linear equations separately, MaxMat=       0.
          There are     1 degrees of freedom in the 1st order CPHF.  IDoFFX=0 NUNeed=     1.
 LinEq1:  Iter=  0 NonCon=     1 RMS=2.76D-03 Max=2.87D-02 NDo=     1
 AX will form     1 AO Fock derivatives at one time.
 LinEq1:  Iter=  1 NonCon=     1 RMS=5.67D-04 Max=6.60D-03 NDo=     1
 LinEq1:  Iter=  2 NonCon=     1 RMS=1.77D-04 Max=1.63D-03 NDo=     1
 LinEq1:  Iter=  3 NonCon=     1 RMS=3.41D-05 Max=2.80D-04 NDo=     1
 LinEq1:  Iter=  4 NonCon=     1 RMS=9.67D-06 Max=9.99D-05 NDo=     1
 LinEq1:  Iter=  5 NonCon=     1 RMS=2.35D-06 Max=3.06D-05 NDo=     1
 LinEq1:  Iter=  6 NonCon=     1 RMS=6.55D-07 Max=1.22D-05 NDo=     1
 LinEq1:  Iter=  7 NonCon=     1 RMS=1.70D-07 Max=1.81D-06 NDo=     1
 LinEq1:  Iter=  8 NonCon=     1 RMS=4.18D-08 Max=4.64D-07 NDo=     1
 LinEq1:  Iter=  9 NonCon=     1 RMS=1.08D-08 Max=1.23D-07 NDo=     1
 LinEq1:  Iter= 10 NonCon=     1 RMS=3.23D-09 Max=2.71D-08 NDo=     1
 LinEq1:  Iter= 11 NonCon=     1 RMS=6.62D-10 Max=4.57D-09 NDo=     1
 LinEq1:  Iter= 12 NonCon=     1 RMS=1.25D-10 Max=1.19D-09 NDo=     1
 LinEq1:  Iter= 13 NonCon=     0 RMS=2.59D-11 Max=2.90D-10 NDo=     1
 Linear equations converged to 1.000D-10 1.000D-09 after    13 iterations.
 End of Minotr F.D. properties file   721 does not exist.
 End of Minotr F.D. properties file   722 does not exist.
 End of Minotr F.D. properties file   788 does not exist.
 Leave Link 1002 at Mon Oct 26 20:14:36 2015, MaxMem=  7340032000 cpu:        13.8
 (Enter /usr/local/gaussian/2009-D.01/g09/l601.exe)
 Copying SCF densities to generalized density rwf, IOpCl= 0 IROHF=0.

 **********************************************************************

            Population analysis using the SCF density.

 **********************************************************************

 Alpha  occ. eigenvalues -- -104.81872 -11.29445 -11.24176 -11.23259 -10.54565
 Alpha  occ. eigenvalues --   -8.01337  -8.01014  -8.01010  -1.14640  -1.04344
 Alpha  occ. eigenvalues --   -0.90793  -0.81756  -0.66422  -0.60087  -0.58085
 Alpha  occ. eigenvalues --   -0.57620  -0.51074  -0.49872  -0.49583  -0.43086
 Alpha  occ. eigenvalues --   -0.42329
 Alpha virt. eigenvalues --    0.03512   0.04619   0.04800   0.05528   0.07232
 Alpha virt. eigenvalues --    0.07504   0.08021   0.09544   0.11574   0.13446
 Alpha virt. eigenvalues --    0.15443   0.16268   0.16491   0.16678   0.17333
 Alpha virt. eigenvalues --    0.17514   0.17702   0.18928   0.20263   0.21146
 Alpha virt. eigenvalues --    0.22002   0.22546   0.25429   0.28396   0.30035
 Alpha virt. eigenvalues --    0.30316   0.32047   0.32904   0.35210   0.36083
 Alpha virt. eigenvalues --    0.37124   0.40344   0.41221   0.41737   0.44321
 Alpha virt. eigenvalues --    0.45715   0.45974   0.46496   0.46995   0.47102
 Alpha virt. eigenvalues --    0.47413   0.50190   0.51777   0.53162   0.54285
 Alpha virt. eigenvalues --    0.55879   0.56986   0.57824   0.58886   0.59815
 Alpha virt. eigenvalues --    0.60913   0.62741   0.62932   0.64328   0.64815
 Alpha virt. eigenvalues --    0.66080   0.70183   0.70455   0.71505   0.72645
 Alpha virt. eigenvalues --    0.74264   0.74363   0.77070   0.79072   0.79978
 Alpha virt. eigenvalues --    0.80035   0.81717   0.82757   0.84299   0.89497
 Alpha virt. eigenvalues --    0.90211   0.93121   0.96411   0.96946   1.04961
 Alpha virt. eigenvalues --    1.05451   1.11695   1.12399   1.12811   1.14521
 Alpha virt. eigenvalues --    1.20989   1.21953   1.24011   1.24434   1.30798
 Alpha virt. eigenvalues --    1.33135   1.38840   1.44351   1.46591   1.47317
 Alpha virt. eigenvalues --    1.47843   1.49888   1.51284   1.51828   1.56342
 Alpha virt. eigenvalues --    1.63980   1.64121   1.76720   1.79539   1.80727
 Alpha virt. eigenvalues --    1.82787   1.86982   1.88326   1.93515   1.96395
 Alpha virt. eigenvalues --    1.99098   2.03485   2.03897   2.06364   2.08245
 Alpha virt. eigenvalues --    2.12783   2.15509   2.18628   2.22546   2.24132
 Alpha virt. eigenvalues --    2.25207   2.31814   2.32733   2.34270   2.38327
 Alpha virt. eigenvalues --    2.41135   2.43291   2.47649   2.55546   2.62185
 Alpha virt. eigenvalues --    2.63565   2.67161   2.73343   2.75025   2.85831
 Alpha virt. eigenvalues --    2.87234   2.90251   2.92831   3.04912   3.09329
 Alpha virt. eigenvalues --    3.09862   3.17268   3.19444
          Condensed to atoms (all electrons):
               1          2          3          4          5          6
     1  C    4.249667   0.426897  -0.021091   0.004381   0.328422   0.370712
     2  C    0.426897   4.805917   0.395686  -0.112015   0.141010  -0.091906
     3  C   -0.021091   0.395686   4.903668   0.287182  -0.007912  -0.006213
     4  Cl   0.004381  -0.112015   0.287182  17.280077  -0.001027   0.000252
     5  H    0.328422   0.141010  -0.007912  -0.001027   1.092888  -0.181844
     6  H    0.370712  -0.091906  -0.006213   0.000252  -0.181844   1.065971
     7  H    0.370712  -0.091906  -0.006213   0.000252  -0.181844  -0.122569
     8  H   -0.014352   0.163564  -0.063156  -0.035042  -0.062780  -0.057068
     9  H   -0.014352   0.163564  -0.063156  -0.035042  -0.062780   0.073692
    10  H    0.005695  -0.038604   0.339091  -0.135312   0.004000  -0.025204
    11  H    0.005695  -0.038604   0.339091  -0.135312   0.004000   0.025344
               7          8          9         10         11
     1  C    0.370712  -0.014352  -0.014352   0.005695   0.005695
     2  C   -0.091906   0.163564   0.163564  -0.038604  -0.038604
     3  C   -0.006213  -0.063156  -0.063156   0.339091   0.339091
     4  Cl   0.000252  -0.035042  -0.035042  -0.135312  -0.135312
     5  H   -0.181844  -0.062780  -0.062780   0.004000   0.004000
     6  H   -0.122569  -0.057068   0.073692  -0.025204   0.025344
     7  H    1.065971   0.073692  -0.057068   0.025344  -0.025204
     8  H    0.073692   1.275004  -0.179174   0.060186  -0.074181
     9  H   -0.057068  -0.179174   1.275004  -0.074181   0.060186
    10  H    0.025344   0.060186  -0.074181   0.951962  -0.112586
    11  H   -0.025204  -0.074181   0.060186  -0.112586   0.951962
 Mulliken charges:
               1
     1  C    0.287615
     2  C    0.276394
     3  C   -0.096977
     4  Cl  -0.118394
     5  H   -0.072132
     6  H   -0.051167
     7  H   -0.051167
     8  H   -0.086693
     9  H   -0.086693
    10  H   -0.000393
    11  H   -0.000393
 Sum of Mulliken charges =   0.00000
 Mulliken charges with hydrogens summed into heavy atoms:
               1
     1  C    0.113148
     2  C    0.103009
     3  C   -0.097763
     4  Cl  -0.118394
 Electronic spatial extent (au):  <R**2>=            780.6843
 Charge=              0.0000 electrons
 Dipole moment (field-independent basis, Debye):
    X=              0.3220    Y=             -2.2606    Z=              0.0000  Tot=              2.2834
 Quadrupole moment (field-independent basis, Debye-Ang):
   XX=            -34.1377   YY=            -37.7841   ZZ=            -32.9075
   XY=              4.0523   XZ=              0.0000   YZ=              0.0000
 Traceless Quadrupole moment (field-independent basis, Debye-Ang):
   XX=              0.8054   YY=             -2.8410   ZZ=              2.0356
   XY=              4.0523   XZ=              0.0000   YZ=              0.0000
 Octapole moment (field-independent basis, Debye-Ang**2):
  XXX=            124.5542  YYY=            -29.8567  ZZZ=              0.0000  XYY=             48.0831
  XXY=            -18.7737  XXZ=              0.0000  XZZ=             39.4306  YZZ=            -11.1757
  YYZ=              0.0000  XYZ=              0.0000
 Hexadecapole moment (field-independent basis, Debye-Ang**3):
 XXXX=           -470.3580 YYYY=           -517.7259 ZZZZ=            -56.1411 XXXY=            143.0220
 XXXZ=              0.0000 YYYX=            128.3413 YYYZ=              0.0000 ZZZX=              0.0000
 ZZZY=              0.0000 XXYY=           -178.2975 XXZZ=            -83.1285 YYZZ=            -97.7155
 XXYZ=              0.0000 YYXZ=              0.0000 ZZXY=             45.3550
 N-N= 1.596941952264D+02 E-N=-1.687171913014D+03  KE= 5.771076815175D+02
 No NMR shielding tensors so no spin-rotation constants.
 Leave Link  601 at Mon Oct 26 20:14:36 2015, MaxMem=  7340032000 cpu:         1.6
 (Enter /usr/local/gaussian/2009-D.01/g09/l701.exe)
 Compute integral first derivatives.
 ... and contract with generalized density number  2.
 Leave Link  701 at Mon Oct 26 20:14:36 2015, MaxMem=  7340032000 cpu:         1.8
 (Enter /usr/local/gaussian/2009-D.01/g09/l702.exe)
 L702 exits ... SP integral derivatives will be done elsewhere.
 Leave Link  702 at Mon Oct 26 20:14:36 2015, MaxMem=  7340032000 cpu:         0.2
 (Enter /usr/local/gaussian/2009-D.01/g09/l703.exe)
 Compute integral first derivatives, UseDBF=F ICtDFT=           0.
 Integral derivatives from FoFJK, PRISM(SPDF).
 Calling FoFJK, ICntrl=  10002127 FMM=F ISym2X=0 I1Cent= 0 IOpClX= 0 NMat=1 NMatS=1 NMatT=0.
 FoFJK:  IHMeth= 1 ICntrl=10002127 DoSepK=F KAlg= 0 I1Cent=   0 FoldK=F
 IRaf=         0 NMat=   1 IRICut=       1 DoRegI=T DoRafI=F ISym2E= 0.
 FoFCou: FMM=F IPFlag=           0 FMFlag=      100000 FMFlg1=         800
         NFxFlg=           0 DoJE=F BraDBF=F KetDBF=F FulRan=T
         wScrn=  0.000000 ICntrl=10002127 IOpCl=  0 I1Cent=           0 NGrid=           0
         NMat0=    1 NMatS0=      1 NMatT0=    0 NMatD0=    1 NMtDS0=    0 NMtDT0=    0
 Symmetry not used in FoFCou.
 Leave Link  703 at Mon Oct 26 20:14:37 2015, MaxMem=  7340032000 cpu:        14.9
 (Enter /usr/local/gaussian/2009-D.01/g09/l716.exe)
 Dipole        = 1.23263632D-01-8.05961578D-01-2.46469511D-14
 -------------------------------------------------------------------
 Center     Atomic                   Forces (Hartrees/Bohr)
 Number     Number              X              Y              Z
 -------------------------------------------------------------------
      1        6           0.001373492    0.015224642    0.000000000
      2        6          -0.014666531   -0.011812422    0.000000000
      3        6           0.021717793   -0.017177799    0.000000000
      4       17          -0.005198437    0.018605059    0.000000000
      5        1           0.005008217   -0.005384189    0.000000000
      6        1          -0.002807301   -0.005975196    0.005452182
      7        1          -0.002807301   -0.005975196   -0.005452182
      8        1           0.003877878    0.005176898    0.004546703
      9        1           0.003877878    0.005176898   -0.004546703
     10        1          -0.005187844    0.001070652   -0.005228508
     11        1          -0.005187844    0.001070652    0.005228508
 -------------------------------------------------------------------
 Cartesian Forces:  Max     0.021717793 RMS     0.008099263
 Leave Link  716 at Mon Oct 26 20:14:37 2015, MaxMem=  7340032000 cpu:         0.4
 (Enter /usr/local/gaussian/2009-D.01/g09/l103.exe)

 GradGradGradGradGradGradGradGradGradGradGradGradGradGradGradGradGradGrad
 Berny optimization.
 FormGI is forming the generalized inverse of G from B-inverse, IUseBI=4.
 Internal  Forces:  Max     0.018605059 RMS     0.004778926
 Search for a local minimum.
 Step number   1 out of a maximum of   56
 All quantities printed in internal units (Hartrees-Bohrs-Radians)
 RMS Force = .47789D-02 SwitMx=.10000D-02 MixMth= 1
 Mixed Optimization -- RFO/linear search
 Second derivative matrix not updated -- first step.
 ITU=  0
     Eigenvalues ---    0.00233   0.00237   0.03834   0.04893   0.05714
     Eigenvalues ---    0.05723   0.05724   0.05979   0.07659   0.11705
     Eigenvalues ---    0.16000   0.16000   0.16000   0.16000   0.16000
     Eigenvalues ---    0.21946   0.22461   0.28493   0.28519   0.29539
     Eigenvalues ---    0.34776   0.34776   0.34776   0.34776   0.34789
     Eigenvalues ---    0.34814   0.34814
 RFO step:  Lambda=-4.16667722D-03 EMin= 2.32959139D-03
 Linear search not attempted -- first point.
 Iteration  1 RMS(Cart)=  0.02965714 RMS(Int)=  0.00042662
 Iteration  2 RMS(Cart)=  0.00037564 RMS(Int)=  0.00019431
 Iteration  3 RMS(Cart)=  0.00000018 RMS(Int)=  0.00019431
 ITry= 1 IFail=0 DXMaxC= 8.25D-02 DCOld= 1.00D+10 DXMaxT= 3.00D-01 DXLimC= 3.00D+00 Rises=F
 Variable       Old X    -DE/DX   Delta X   Delta X   Delta X     New X
                                 (Linear)    (Quad)   (Total)
    R1        2.91018   0.00211   0.00000   0.00729   0.00729   2.91747
    R2        2.06019   0.00652   0.00000   0.01851   0.01851   2.07870
    R3        2.05977   0.00777   0.00000   0.02204   0.02204   2.08181
    R4        2.05977   0.00777   0.00000   0.02204   0.02204   2.08181
    R5        2.91073  -0.00460   0.00000  -0.01591  -0.01591   2.89482
    R6        2.06040   0.00727   0.00000   0.02065   0.02065   2.08105
    R7        2.06040   0.00727   0.00000   0.02065   0.02065   2.08105
    R8        3.32592   0.01861   0.00000   0.06211   0.06211   3.38803
    R9        2.06040   0.00636   0.00000   0.01806   0.01806   2.07846
   R10        2.06040   0.00636   0.00000   0.01806   0.01806   2.07846
    A1        1.91024   0.00334   0.00000   0.01933   0.01912   1.92936
    A2        1.91031   0.00379   0.00000   0.02360   0.02332   1.93364
    A3        1.91031   0.00379   0.00000   0.02360   0.02332   1.93364
    A4        1.91110  -0.00369   0.00000  -0.02347  -0.02367   1.88742
    A5        1.91110  -0.00369   0.00000  -0.02347  -0.02367   1.88742
    A6        1.91073  -0.00354   0.00000  -0.01955  -0.01988   1.89085
    A7        1.91103   0.00316   0.00000   0.02099   0.02089   1.93192
    A8        1.91118   0.00052   0.00000   0.01492   0.01500   1.92618
    A9        1.91118   0.00052   0.00000   0.01492   0.01500   1.92618
   A10        1.91027  -0.00170   0.00000  -0.01261  -0.01297   1.89731
   A11        1.91027  -0.00170   0.00000  -0.01261  -0.01297   1.89731
   A12        1.90987  -0.00081   0.00000  -0.02566  -0.02598   1.88389
   A13        1.91103   0.01067   0.00000   0.04430   0.04391   1.95494
   A14        1.91027   0.00241   0.00000   0.01894   0.01860   1.92887
   A15        1.91027   0.00241   0.00000   0.01894   0.01860   1.92887
   A16        1.91118  -0.00662   0.00000  -0.03672  -0.03709   1.87409
   A17        1.91118  -0.00662   0.00000  -0.03672  -0.03709   1.87409
   A18        1.90987  -0.00224   0.00000  -0.00873  -0.00901   1.90086
    D1        3.14159   0.00000   0.00000   0.00000   0.00000   3.14159
    D2       -1.04706   0.00018   0.00000   0.00657   0.00667  -1.04040
    D3        1.04706  -0.00018   0.00000  -0.00657  -0.00667   1.04040
    D4       -1.04706  -0.00015   0.00000  -0.00247  -0.00250  -1.04957
    D5        1.04746   0.00002   0.00000   0.00410   0.00416   1.05163
    D6        3.14159  -0.00033   0.00000  -0.00904  -0.00917   3.13242
    D7        1.04706   0.00015   0.00000   0.00247   0.00250   1.04957
    D8        3.14159   0.00033   0.00000   0.00904   0.00917  -3.13242
    D9       -1.04746  -0.00002   0.00000  -0.00410  -0.00416  -1.05163
   D10        3.14159   0.00000   0.00000   0.00000   0.00000   3.14159
   D11       -1.04651  -0.00010   0.00000  -0.00623  -0.00620  -1.05271
   D12        1.04651   0.00010   0.00000   0.00623   0.00620   1.05271
   D13        1.04651  -0.00154   0.00000  -0.02340  -0.02324   1.02327
   D14        3.14159  -0.00164   0.00000  -0.02963  -0.02944   3.11215
   D15       -1.04857  -0.00144   0.00000  -0.01718  -0.01704  -1.06562
   D16       -1.04651   0.00154   0.00000   0.02340   0.02324  -1.02327
   D17        1.04857   0.00144   0.00000   0.01718   0.01704   1.06562
   D18        3.14159   0.00164   0.00000   0.02963   0.02944  -3.11215
         Item               Value     Threshold  Converged?
 Maximum Force            0.018605     0.000450     NO 
 RMS     Force            0.004779     0.000300     NO 
 Maximum Displacement     0.082522     0.001800     NO 
 RMS     Displacement     0.029644     0.001200     NO 
 Predicted change in Energy=-2.125884D-03
 Lowest energy point so far.  Saving SCF results.
 GradGradGradGradGradGradGradGradGradGradGradGradGradGradGradGradGradGrad

 Leave Link  103 at Mon Oct 26 20:14:37 2015, MaxMem=  7340032000 cpu:         0.2
 (Enter /usr/local/gaussian/2009-D.01/g09/l202.exe)
                          Input orientation:                          
 ---------------------------------------------------------------------
 Center     Atomic      Atomic             Coordinates (Angstroms)
 Number     Number       Type             X           Y           Z
 ---------------------------------------------------------------------
      1          6           0       -0.361352   -1.879446    0.000000
      2          6           0       -0.371049   -0.335618    0.000000
      3          6           0       -1.807487    0.196618    0.000000
      4         17           0       -1.860010    1.988715    0.000000
      5          1           0        0.671096   -2.258990    0.000000
      6          1           0       -0.871730   -2.273669    0.893158
      7          1           0       -0.871730   -2.273669   -0.893158
      8          1           0        0.148818    0.050832    0.890582
      9          1           0        0.148818    0.050832   -0.890582
     10          1           0       -2.346187   -0.147802   -0.894931
     11          1           0       -2.346187   -0.147802    0.894931
 ---------------------------------------------------------------------
                    Distance matrix (angstroms):
                    1          2          3          4          5
     1  C    0.000000
     2  C    1.543859   0.000000
     3  C    2.530089   1.531871   0.000000
     4  Cl   4.148331   2.760349   1.792866   0.000000
     5  H    1.100001   2.187562   3.489038   4.944643   0.000000
     6  H    1.101648   2.191906   2.788492   4.465685   1.782767
     7  H    1.101648   2.191906   2.788492   4.465685   1.782767
     8  H    2.186180   1.101246   2.154419   2.929832   2.530057
     9  H    2.186180   1.101246   2.154419   2.929832   2.530057
    10  H    2.781917   2.176544   1.099875   2.366849   3.789725
    11  H    2.781917   2.176544   1.099875   2.366849   3.789725
                    6          7          8          9         10
     6  H    0.000000
     7  H    1.786315   0.000000
     8  H    2.538667   3.102668   0.000000
     9  H    3.102668   2.538667   1.781164   0.000000
    10  H    3.144931   2.587148   3.074502   2.502903   0.000000
    11  H    2.587148   3.144931   2.502903   3.074502   1.789862
                   11
    11  H    0.000000
 Symmetry turned off by external request.
 Stoichiometry    C3H7Cl
 Framework group  CS[SG(C3HCl),X(H6)]
 Deg. of freedom    16
 Full point group                 CS      NOp   2
 Rotational constants (GHZ):     25.6870108      2.3503568      2.2455819
 Leave Link  202 at Mon Oct 26 20:14:38 2015, MaxMem=  7340032000 cpu:         0.1
 (Enter /usr/local/gaussian/2009-D.01/g09/l301.exe)
 Standard basis: Aug-CC-pVDZ (5D, 7F)
 Ernie: Thresh=  0.10000D-02 Tol=  0.10000D-05 Strict=F.
 Ernie:  16 primitive shells out of 177 were deleted.
   159 basis functions,   287 primitive gaussians,   167 cartesian basis functions
    21 alpha electrons       21 beta electrons
       nuclear repulsion energy       157.7970334909 Hartrees.
 IExCor=    0 DFT=F Ex=HF Corr=None ExCW=0 ScaHFX=  1.000000
 ScaDFX=  1.000000  1.000000  1.000000  1.000000 ScalE2=  1.000000  1.000000
 IRadAn=      0 IRanWt=     -1 IRanGd=            0 ICorTp=0 IEmpDi=  4
 NAtoms=   11 NActive=   11 NUniq=   11 SFac= 1.00D+00 NAtFMM=   60 NAOKFM=F Big=F
 Integral buffers will be    131072 words long.
 Raffenetti 1 integral format.
 Two-electron integral symmetry is turned off.
 Leave Link  301 at Mon Oct 26 20:14:38 2015, MaxMem=  7340032000 cpu:         0.4
 (Enter /usr/local/gaussian/2009-D.01/g09/l302.exe)
 NPDir=0 NMtPBC=     1 NCelOv=     1 NCel=       1 NClECP=     1 NCelD=      1
         NCelK=      1 NCelE2=     1 NClLst=     1 CellRange=     0.0.
 One-electron integrals computed using PRISM.
 NBasis=   159 RedAO= T EigKep=  5.38D-05  NBF=   159
 NBsUse=   159 1.00D-06 EigRej= -1.00D+00 NBFU=   159
 Leave Link  302 at Mon Oct 26 20:14:38 2015, MaxMem=  7340032000 cpu:         1.8
 (Enter /usr/local/gaussian/2009-D.01/g09/l303.exe)
 DipDrv:  MaxL=1.
 Leave Link  303 at Mon Oct 26 20:14:38 2015, MaxMem=  7340032000 cpu:         0.3
 (Enter /usr/local/gaussian/2009-D.01/g09/l401.exe)
 Initial guess from the checkpoint file:  "CH3CH2CH2Cl_MP2_aug-cc-pVDZ_opt_freq_298K.chk"
 B after Tr=    -0.020869    0.038270    0.000000
         Rot=    0.999997    0.000000    0.000000   -0.002319 Ang=  -0.27 deg.
 Guess basis will be translated and rotated to current coordinates.
 JPrj=2 DoOrth=T DoCkMO=T.
 Generating alternative initial guess.
 ExpMin= 2.97D-02 ExpMax= 1.28D+05 ExpMxC= 1.24D+03 IAcc=3 IRadAn=         5 AccDes= 0.00D+00
 Harris functional with IExCor=  205 and IRadAn=       5 diagonalized for initial guess.
 HarFok:  IExCor=  205 AccDes= 0.00D+00 IRadAn=         5 IDoV= 1 UseB2=F ITyADJ=14
 ICtDFT=  3500011 ScaDFX=  1.000000  1.000000  1.000000  1.000000
 FoFCou: FMM=F IPFlag=           0 FMFlag=      100000 FMFlg1=           0
         NFxFlg=           0 DoJE=T BraDBF=F KetDBF=T FulRan=T
         wScrn=  0.000000 ICntrl=     500 IOpCl=  0 I1Cent=   200000004 NGrid=           0
         NMat0=    1 NMatS0=      1 NMatT0=    0 NMatD0=    1 NMtDS0=    0 NMtDT0=    0
 Symmetry not used in FoFCou.
 Harris En= -577.048575534581    
 Leave Link  401 at Mon Oct 26 20:14:38 2015, MaxMem=  7340032000 cpu:         5.7
 (Enter /usr/local/gaussian/2009-D.01/g09/l502.exe)
 Closed shell SCF:
 Using DIIS extrapolation, IDIIS=  1040.
 Two-electron integral symmetry not used.
 Keep R1 ints in memory in canonical form, NReq=83381537.
 IVT=      105245 IEndB=      105245 NGot=  7340032000 MDV=  7259021196
 LenX=  7259021196 LenY=  7258992866
 Requested convergence on RMS density matrix=1.00D-08 within 128 cycles.
 Requested convergence on MAX density matrix=1.00D-06.
 Requested convergence on             energy=1.00D-06.
 No special actions if energy rises.
 FoFCou: FMM=F IPFlag=           0 FMFlag=           0 FMFlg1=           0
         NFxFlg=           0 DoJE=F BraDBF=F KetDBF=F FulRan=T
         wScrn=  0.000000 ICntrl=     600 IOpCl=  0 I1Cent=           0 NGrid=           0
         NMat0=    1 NMatS0=  12720 NMatT0=    0 NMatD0=    1 NMtDS0=    0 NMtDT0=    0
 Symmetry not used in FoFCou.

 Cycle   1  Pass 1  IDiag  1:
 E= -577.202046306138    
 DIIS: error= 2.42D-03 at cycle   1 NSaved=   1.
 NSaved= 1 IEnMin= 1 EnMin= -577.202046306138     IErMin= 1 ErrMin= 2.42D-03
 ErrMax= 2.42D-03  0.00D+00 EMaxC= 1.00D-01 BMatC= 8.44D-04 BMatP= 8.44D-04
 IDIUse=3 WtCom= 9.76D-01 WtEn= 2.42D-02
 Coeff-Com:  0.100D+01
 Coeff-En:   0.100D+01
 Coeff:      0.100D+01
 Gap=     0.698 Goal=   None    Shift=    0.000
 GapD=    0.698 DampG=2.000 DampE=1.000 DampFc=2.0000 IDamp=-1.
 RMSDP=8.26D-04 MaxDP=1.36D-02              OVMax= 8.59D-03

 Cycle   2  Pass 1  IDiag  1:
 E= -577.203015404310     Delta-E=       -0.000969098172 Rises=F Damp=F
 DIIS: error= 3.61D-04 at cycle   2 NSaved=   2.
 NSaved= 2 IEnMin= 2 EnMin= -577.203015404310     IErMin= 2 ErrMin= 3.61D-04
 ErrMax= 3.61D-04  0.00D+00 EMaxC= 1.00D-01 BMatC= 4.28D-05 BMatP= 8.44D-04
 IDIUse=3 WtCom= 9.96D-01 WtEn= 3.61D-03
 Coeff-Com: -0.105D+00 0.110D+01
 Coeff-En:   0.000D+00 0.100D+01
 Coeff:     -0.104D+00 0.110D+01
 Gap=     0.462 Goal=   None    Shift=    0.000
 RMSDP=1.75D-04 MaxDP=3.75D-03 DE=-9.69D-04 OVMax= 3.98D-03

 Cycle   3  Pass 1  IDiag  1:
 E= -577.203096257361     Delta-E=       -0.000080853051 Rises=F Damp=F
 DIIS: error= 2.82D-04 at cycle   3 NSaved=   3.
 NSaved= 3 IEnMin= 3 EnMin= -577.203096257361     IErMin= 3 ErrMin= 2.82D-04
 ErrMax= 2.82D-04  0.00D+00 EMaxC= 1.00D-01 BMatC= 6.24D-06 BMatP= 4.28D-05
 IDIUse=3 WtCom= 9.97D-01 WtEn= 2.82D-03
 Coeff-Com: -0.520D-01 0.192D+00 0.860D+00
 Coeff-En:   0.000D+00 0.000D+00 0.100D+01
 Coeff:     -0.518D-01 0.191D+00 0.860D+00
 Gap=     0.462 Goal=   None    Shift=    0.000
 RMSDP=4.50D-05 MaxDP=1.38D-03 DE=-8.09D-05 OVMax= 1.45D-03

 Cycle   4  Pass 1  IDiag  1:
 E= -577.203108388130     Delta-E=       -0.000012130769 Rises=F Damp=F
 DIIS: error= 9.17D-05 at cycle   4 NSaved=   4.
 NSaved= 4 IEnMin= 4 EnMin= -577.203108388130     IErMin= 4 ErrMin= 9.17D-05
 ErrMax= 9.17D-05  0.00D+00 EMaxC= 1.00D-01 BMatC= 9.54D-07 BMatP= 6.24D-06
 IDIUse=1 WtCom= 1.00D+00 WtEn= 0.00D+00
 Coeff-Com:  0.159D-01-0.157D+00-0.936D-02 0.115D+01
 Coeff:      0.159D-01-0.157D+00-0.936D-02 0.115D+01
 Gap=     0.462 Goal=   None    Shift=    0.000
 RMSDP=2.68D-05 MaxDP=8.07D-04 DE=-1.21D-05 OVMax= 1.18D-03

 Cycle   5  Pass 1  IDiag  1:
 E= -577.203111414621     Delta-E=       -0.000003026491 Rises=F Damp=F
 DIIS: error= 3.03D-05 at cycle   5 NSaved=   5.
 NSaved= 5 IEnMin= 5 EnMin= -577.203111414621     IErMin= 5 ErrMin= 3.03D-05
 ErrMax= 3.03D-05  0.00D+00 EMaxC= 1.00D-01 BMatC= 8.46D-08 BMatP= 9.54D-07
 IDIUse=1 WtCom= 1.00D+00 WtEn= 0.00D+00
 Coeff-Com:  0.490D-02-0.171D-01-0.829D-01-0.389D-01 0.113D+01
 Coeff:      0.490D-02-0.171D-01-0.829D-01-0.389D-01 0.113D+01
 Gap=     0.462 Goal=   None    Shift=    0.000
 RMSDP=8.93D-06 MaxDP=2.27D-04 DE=-3.03D-06 OVMax= 4.28D-04

 Cycle   6  Pass 1  IDiag  1:
 E= -577.203111740652     Delta-E=       -0.000000326031 Rises=F Damp=F
 DIIS: error= 7.13D-06 at cycle   6 NSaved=   6.
 NSaved= 6 IEnMin= 6 EnMin= -577.203111740652     IErMin= 6 ErrMin= 7.13D-06
 ErrMax= 7.13D-06  0.00D+00 EMaxC= 1.00D-01 BMatC= 7.52D-09 BMatP= 8.46D-08
 IDIUse=1 WtCom= 1.00D+00 WtEn= 0.00D+00
 Coeff-Com: -0.164D-02 0.179D-01 0.521D-04-0.138D+00 0.236D-01 0.110D+01
 Coeff:     -0.164D-02 0.179D-01 0.521D-04-0.138D+00 0.236D-01 0.110D+01
 Gap=     0.462 Goal=   None    Shift=    0.000
 RMSDP=2.71D-06 MaxDP=6.70D-05 DE=-3.26D-07 OVMax= 1.39D-04

 Cycle   7  Pass 1  IDiag  1:
 E= -577.203111766826     Delta-E=       -0.000000026174 Rises=F Damp=F
 DIIS: error= 1.44D-06 at cycle   7 NSaved=   7.
 NSaved= 7 IEnMin= 7 EnMin= -577.203111766826     IErMin= 7 ErrMin= 1.44D-06
 ErrMax= 1.44D-06  0.00D+00 EMaxC= 1.00D-01 BMatC= 3.53D-10 BMatP= 7.52D-09
 IDIUse=1 WtCom= 1.00D+00 WtEn= 0.00D+00
 Coeff-Com: -0.184D-03 0.321D-03 0.452D-02 0.571D-02-0.606D-01-0.156D-01
 Coeff-Com:  0.107D+01
 Coeff:     -0.184D-03 0.321D-03 0.452D-02 0.571D-02-0.606D-01-0.156D-01
 Coeff:      0.107D+01
 Gap=     0.462 Goal=   None    Shift=    0.000
 RMSDP=4.79D-07 MaxDP=8.77D-06 DE=-2.62D-08 OVMax= 2.08D-05

 Cycle   8  Pass 1  IDiag  1:
 E= -577.203111767797     Delta-E=       -0.000000000971 Rises=F Damp=F
 DIIS: error= 6.16D-07 at cycle   8 NSaved=   8.
 NSaved= 8 IEnMin= 8 EnMin= -577.203111767797     IErMin= 8 ErrMin= 6.16D-07
 ErrMax= 6.16D-07  0.00D+00 EMaxC= 1.00D-01 BMatC= 4.01D-11 BMatP= 3.53D-10
 IDIUse=1 WtCom= 1.00D+00 WtEn= 0.00D+00
 Coeff-Com:  0.131D-03-0.165D-02 0.502D-03 0.136D-01-0.104D-01-0.103D+00
 Coeff-Com:  0.121D+00 0.981D+00
 Coeff:      0.131D-03-0.165D-02 0.502D-03 0.136D-01-0.104D-01-0.103D+00
 Coeff:      0.121D+00 0.981D+00
 Gap=     0.462 Goal=   None    Shift=    0.000
 RMSDP=1.59D-07 MaxDP=3.02D-06 DE=-9.71D-10 OVMax= 5.57D-06

 Cycle   9  Pass 1  IDiag  1:
 E= -577.203111767900     Delta-E=       -0.000000000102 Rises=F Damp=F
 DIIS: error= 1.51D-07 at cycle   9 NSaved=   9.
 NSaved= 9 IEnMin= 9 EnMin= -577.203111767900     IErMin= 9 ErrMin= 1.51D-07
 ErrMax= 1.51D-07  0.00D+00 EMaxC= 1.00D-01 BMatC= 2.82D-12 BMatP= 4.01D-11
 IDIUse=1 WtCom= 1.00D+00 WtEn= 0.00D+00
 Coeff-Com: -0.792D-05 0.250D-03-0.447D-03-0.252D-02 0.580D-02 0.202D-01
 Coeff-Com: -0.101D+00-0.180D+00 0.126D+01
 Coeff:     -0.792D-05 0.250D-03-0.447D-03-0.252D-02 0.580D-02 0.202D-01
 Coeff:     -0.101D+00-0.180D+00 0.126D+01
 Gap=     0.462 Goal=   None    Shift=    0.000
 RMSDP=4.83D-08 MaxDP=7.60D-07 DE=-1.02D-10 OVMax= 1.51D-06

 Cycle  10  Pass 1  IDiag  1:
 E= -577.203111767904     Delta-E=       -0.000000000005 Rises=F Damp=F
 DIIS: error= 3.64D-08 at cycle  10 NSaved=  10.
 NSaved=10 IEnMin=10 EnMin= -577.203111767904     IErMin=10 ErrMin= 3.64D-08
 ErrMax= 3.64D-08  0.00D+00 EMaxC= 1.00D-01 BMatC= 2.01D-13 BMatP= 2.82D-12
 IDIUse=1 WtCom= 1.00D+00 WtEn= 0.00D+00
 Coeff-Com: -0.945D-05 0.120D-03-0.350D-04-0.918D-03 0.466D-03 0.788D-02
 Coeff-Com: -0.646D-02-0.727D-01-0.221D-01 0.109D+01
 Coeff:     -0.945D-05 0.120D-03-0.350D-04-0.918D-03 0.466D-03 0.788D-02
 Coeff:     -0.646D-02-0.727D-01-0.221D-01 0.109D+01
 Gap=     0.462 Goal=   None    Shift=    0.000
 RMSDP=1.05D-08 MaxDP=1.89D-07 DE=-4.55D-12 OVMax= 3.26D-07

 Cycle  11  Pass 1  IDiag  1:
 E= -577.203111767898     Delta-E=        0.000000000007 Rises=F Damp=F
 DIIS: error= 8.28D-09 at cycle  11 NSaved=  11.
 NSaved=11 IEnMin=10 EnMin= -577.203111767904     IErMin=11 ErrMin= 8.28D-09
 ErrMax= 8.28D-09  0.00D+00 EMaxC= 1.00D-01 BMatC= 1.64D-14 BMatP= 2.01D-13
 IDIUse=1 WtCom= 1.00D+00 WtEn= 0.00D+00
 Coeff-Com:  0.118D-05-0.286D-04 0.360D-04 0.290D-03-0.618D-03-0.211D-02
 Coeff-Com:  0.919D-02 0.187D-01-0.103D+00-0.678D-01 0.115D+01
 Coeff:      0.118D-05-0.286D-04 0.360D-04 0.290D-03-0.618D-03-0.211D-02
 Coeff:      0.919D-02 0.187D-01-0.103D+00-0.678D-01 0.115D+01
 Gap=     0.462 Goal=   None    Shift=    0.000
 RMSDP=3.84D-09 MaxDP=8.75D-08 DE= 6.59D-12 OVMax= 9.41D-08

 SCF Done:  E(RHF) =  -577.203111768     A.U. after   11 cycles
            NFock= 11  Conv=0.38D-08     -V/T= 2.0005
 KE= 5.769405379543D+02 PE=-1.683237622733D+03 EE= 3.712969395200D+02
 Leave Link  502 at Mon Oct 26 20:14:41 2015, MaxMem=  7340032000 cpu:        15.6
 (Enter /usr/local/gaussian/2009-D.01/g09/l801.exe)
 ExpMin= 2.97D-02 ExpMax= 1.28D+05 ExpMxC= 1.24D+03 IAcc=3 IRadAn=         5 AccDes= 0.00D+00
 HarFok:  IExCor=  205 AccDes= 0.00D+00 IRadAn=         5 IDoV=-2 UseB2=F ITyADJ=14
 ICtDFT= 12500011 ScaDFX=  1.000000  1.000000  1.000000  1.000000
 Largest valence mixing into a core orbital is  2.90D-04
 Largest core mixing into a valence orbital is  9.56D-05
 Range of M.O.s used for correlation:     9   159
 NBasis=   159 NAE=    21 NBE=    21 NFC=     8 NFV=     0
 NROrb=    151 NOA=    13 NOB=    13 NVA=   138 NVB=   138

 **** Warning!!: The largest alpha MO coefficient is  0.35270673D+02

 Leave Link  801 at Mon Oct 26 20:14:41 2015, MaxMem=  7340032000 cpu:         0.9
 (Enter /usr/local/gaussian/2009-D.01/g09/l906.exe)
 Frozen-core derivative calculation, NFC=   8 NFV=   0.
 FulOut=F Deriv=T AODrv=T NAtomX=    11
   MMem=        3094  MDisk=          13 MDiskD=          13
  W3Min=      557613 MinDsk=      876316 NBas6D=         167
 NBas2D=       14229    NTT=       14028    LW2=     2040000
    MDV=  7339637417 MDiskM=      610249 NBas2p=       14196
 Fully direct method using O(ONN) memory.
 IMap=   1   2   3   4   5   6   7   8   9  10  11  12  13  14  15  16  17  18  19  20
 IMap=  21
 JobTyp=1 Pass  1:  I=   9 to  21 NPSUse= 12 ParTrn=T ParDer=T DoDerP=T.
 Spin components of T(2) and E(2):
     alpha-alpha T2 =       0.2710765008D-01 E2=     -0.7115811827D-01
     alpha-beta  T2 =       0.1626389795D+00 E2=     -0.4592410181D+00
     beta-beta   T2 =       0.2710765008D-01 E2=     -0.7115811827D-01
 The integrals were generated   1 times.
 ANorm=    0.1103111182D+01
 E2 =    -0.6015572546D+00 EUMP2 =    -0.57780466902253D+03
 Leave Link  906 at Mon Oct 26 20:14:49 2015, MaxMem=  7340032000 cpu:        96.2
 (Enter /usr/local/gaussian/2009-D.01/g09/l1002.exe)
 Minotr:  Closed shell wavefunction.
          Computing MP2/KS-MP2 derivatives.
          Using Z-Vector for PSCF gradient.
          Skipping F1 and S1 gradient terms here.
          IDoAtm=11111111111
          Frozen-core window.
          Direct CPHF calculation.
          Differentiating once with respect to electric field.
                with respect to dipole field.
          Differentiating once with respect to nuclear coordinates.
          Requested convergence is 1.0D-10 RMS, and 1.0D-09 maximum.
          NewPWx=F KeepS1=T KeepF1=T KeepIn=T MapXYZ=F SortEE=F KeepMc=T.
          MDV=    7340031735 using IRadAn=       0.
 Keep R1 ints in memory in canonical form, NReq=83277870.
 FoFCou: FMM=F IPFlag=           0 FMFlag=           0 FMFlg1=           0
         NFxFlg=           0 DoJE=F BraDBF=F KetDBF=F FulRan=T
         wScrn=  0.000000 ICntrl=     600 IOpCl=  0 I1Cent=           0 NGrid=           0
         NMat0=    1 NMatS0=  12720 NMatT0=    0 NMatD0=    1 NMtDS0=    0 NMtDT0=    0
 Symmetry not used in FoFCou.
          Solving linear equations separately, MaxMat=       0.
          There are     1 degrees of freedom in the 1st order CPHF.  IDoFFX=0 NUNeed=     1.
 LinEq1:  Iter=  0 NonCon=     1 RMS=2.81D-03 Max=2.80D-02 NDo=     1
 AX will form     1 AO Fock derivatives at one time.
 LinEq1:  Iter=  1 NonCon=     1 RMS=6.11D-04 Max=7.35D-03 NDo=     1
 LinEq1:  Iter=  2 NonCon=     1 RMS=1.85D-04 Max=1.90D-03 NDo=     1
 LinEq1:  Iter=  3 NonCon=     1 RMS=3.54D-05 Max=2.78D-04 NDo=     1
 LinEq1:  Iter=  4 NonCon=     1 RMS=1.04D-05 Max=1.08D-04 NDo=     1
 LinEq1:  Iter=  5 NonCon=     1 RMS=2.59D-06 Max=3.35D-05 NDo=     1
 LinEq1:  Iter=  6 NonCon=     1 RMS=7.55D-07 Max=1.28D-05 NDo=     1
 LinEq1:  Iter=  7 NonCon=     1 RMS=1.90D-07 Max=1.60D-06 NDo=     1
 LinEq1:  Iter=  8 NonCon=     1 RMS=4.72D-08 Max=4.66D-07 NDo=     1
 LinEq1:  Iter=  9 NonCon=     1 RMS=1.20D-08 Max=1.09D-07 NDo=     1
 LinEq1:  Iter= 10 NonCon=     1 RMS=3.50D-09 Max=2.83D-08 NDo=     1
 LinEq1:  Iter= 11 NonCon=     1 RMS=6.92D-10 Max=4.60D-09 NDo=     1
 LinEq1:  Iter= 12 NonCon=     1 RMS=1.27D-10 Max=1.09D-09 NDo=     1
 LinEq1:  Iter= 13 NonCon=     0 RMS=2.91D-11 Max=2.83D-10 NDo=     1
 Linear equations converged to 1.000D-10 1.000D-09 after    13 iterations.
 End of Minotr F.D. properties file   721 does not exist.
 End of Minotr F.D. properties file   722 does not exist.
 End of Minotr F.D. properties file   788 does not exist.
 Leave Link 1002 at Mon Oct 26 20:14:52 2015, MaxMem=  7340032000 cpu:        13.8
 (Enter /usr/local/gaussian/2009-D.01/g09/l701.exe)
 Compute integral first derivatives.
 ... and contract with generalized density number  2.
 Leave Link  701 at Mon Oct 26 20:14:53 2015, MaxMem=  7340032000 cpu:         1.8
 (Enter /usr/local/gaussian/2009-D.01/g09/l702.exe)
 L702 exits ... SP integral derivatives will be done elsewhere.
 Leave Link  702 at Mon Oct 26 20:14:53 2015, MaxMem=  7340032000 cpu:         0.2
 (Enter /usr/local/gaussian/2009-D.01/g09/l703.exe)
 Compute integral first derivatives, UseDBF=F ICtDFT=           0.
 Integral derivatives from FoFJK, PRISM(SPDF).
 Calling FoFJK, ICntrl=  10002127 FMM=F ISym2X=0 I1Cent= 0 IOpClX= 0 NMat=1 NMatS=1 NMatT=0.
 FoFJK:  IHMeth= 1 ICntrl=10002127 DoSepK=F KAlg= 0 I1Cent=   0 FoldK=F
 IRaf=         0 NMat=   1 IRICut=       1 DoRegI=T DoRafI=F ISym2E= 0.
 FoFCou: FMM=F IPFlag=           0 FMFlag=      100000 FMFlg1=         800
         NFxFlg=           0 DoJE=F BraDBF=F KetDBF=F FulRan=T
         wScrn=  0.000000 ICntrl=10002127 IOpCl=  0 I1Cent=           0 NGrid=           0
         NMat0=    1 NMatS0=      1 NMatT0=    0 NMatD0=    1 NMtDS0=    0 NMtDT0=    0
 Symmetry not used in FoFCou.
 Leave Link  703 at Mon Oct 26 20:14:54 2015, MaxMem=  7340032000 cpu:        15.0
 (Enter /usr/local/gaussian/2009-D.01/g09/l716.exe)
 Dipole        = 1.43878187D-01-8.51159133D-01 6.57651267D-10
 -------------------------------------------------------------------
 Center     Atomic                   Forces (Hartrees/Bohr)
 Number     Number              X              Y              Z
 -------------------------------------------------------------------
      1        6          -0.000651535    0.006192122    0.000000000
      2        6          -0.003950531   -0.001830031    0.000000000
      3        6           0.004065474   -0.010626475    0.000000000
      4       17           0.000064491    0.004085855    0.000000000
      5        1           0.000069353   -0.000285990    0.000000000
      6        1          -0.000004013   -0.000551577   -0.000014448
      7        1          -0.000004013   -0.000551577    0.000014448
      8        1           0.000996759    0.000245804   -0.000213052
      9        1           0.000996759    0.000245804    0.000213052
     10        1          -0.000791372    0.001538032   -0.000092811
     11        1          -0.000791372    0.001538032    0.000092811
 -------------------------------------------------------------------
 Cartesian Forces:  Max     0.010626475 RMS     0.002539184
 Leave Link  716 at Mon Oct 26 20:14:54 2015, MaxMem=  7340032000 cpu:         0.3
 (Enter /usr/local/gaussian/2009-D.01/g09/l103.exe)

 GradGradGradGradGradGradGradGradGradGradGradGradGradGradGradGradGradGrad
 Berny optimization.
 Using GEDIIS/GDIIS optimizer.
 FormGI is forming the generalized inverse of G from B-inverse, IUseBI=4.
 Internal  Forces:  Max     0.004806591 RMS     0.001259734
 Search for a local minimum.
 Step number   2 out of a maximum of   56
 All quantities printed in internal units (Hartrees-Bohrs-Radians)
 RMS Force = .12597D-02 SwitMx=.10000D-02 MixMth= 1
 Mixed Optimization -- RFO/linear search
 Update second derivatives using D2CorX and points    1    2
 DE= -2.28D-03 DEPred=-2.13D-03 R= 1.07D+00
 TightC=F SS=  1.41D+00  RLast= 1.45D-01 DXNew= 5.0454D-01 4.3557D-01
 Trust test= 1.07D+00 RLast= 1.45D-01 DXMaxT set to 4.36D-01
 ITU=  1  0
 Use linear search instead of GDIIS.
     Eigenvalues ---    0.00233   0.00237   0.03661   0.04713   0.05384
     Eigenvalues ---    0.05467   0.05510   0.05605   0.08023   0.11894
     Eigenvalues ---    0.14370   0.16000   0.16000   0.16000   0.16123
     Eigenvalues ---    0.21864   0.23376   0.25574   0.28575   0.30591
     Eigenvalues ---    0.34764   0.34776   0.34776   0.34786   0.34802
     Eigenvalues ---    0.34814   0.37078
 RFO step:  Lambda=-3.87001411D-04 EMin= 2.32959139D-03
 Quartic linear search produced a step of  0.13013.
 Iteration  1 RMS(Cart)=  0.00647435 RMS(Int)=  0.00012964
 Iteration  2 RMS(Cart)=  0.00009221 RMS(Int)=  0.00009757
 Iteration  3 RMS(Cart)=  0.00000001 RMS(Int)=  0.00009757
 ITry= 1 IFail=0 DXMaxC= 2.45D-02 DCOld= 1.00D+10 DXMaxT= 4.36D-01 DXLimC= 3.00D+00 Rises=F
 Variable       Old X    -DE/DX   Delta X   Delta X   Delta X     New X
                                 (Linear)    (Quad)   (Total)
    R1        2.91747  -0.00481   0.00095  -0.01928  -0.01833   2.89914
    R2        2.07870   0.00016   0.00241  -0.00016   0.00225   2.08095
    R3        2.08181   0.00019   0.00287  -0.00021   0.00266   2.08447
    R4        2.08181   0.00019   0.00287  -0.00021   0.00266   2.08447
    R5        2.89482  -0.00359  -0.00207  -0.01364  -0.01571   2.87911
    R6        2.08105   0.00038   0.00269   0.00048   0.00317   2.08422
    R7        2.08105   0.00038   0.00269   0.00048   0.00317   2.08422
    R8        3.38803   0.00408   0.00808   0.01331   0.02139   3.40942
    R9        2.07846  -0.00002   0.00235  -0.00073   0.00162   2.08008
   R10        2.07846  -0.00002   0.00235  -0.00073   0.00162   2.08008
    A1        1.92936   0.00010   0.00249  -0.00023   0.00222   1.93158
    A2        1.93364   0.00059   0.00303   0.00349   0.00647   1.94011
    A3        1.93364   0.00059   0.00303   0.00349   0.00647   1.94011
    A4        1.88742  -0.00039  -0.00308  -0.00222  -0.00533   1.88209
    A5        1.88742  -0.00039  -0.00308  -0.00222  -0.00533   1.88209
    A6        1.89085  -0.00056  -0.00259  -0.00262  -0.00528   1.88557
    A7        1.93192  -0.00129   0.00272  -0.00539  -0.00268   1.92924
    A8        1.92618   0.00027   0.00195   0.00006   0.00202   1.92820
    A9        1.92618   0.00027   0.00195   0.00006   0.00202   1.92820
   A10        1.89731   0.00073  -0.00169   0.00712   0.00539   1.90269
   A11        1.89731   0.00073  -0.00169   0.00712   0.00539   1.90269
   A12        1.88389  -0.00068  -0.00338  -0.00884  -0.01226   1.87163
   A13        1.95494  -0.00148   0.00571  -0.01303  -0.00730   1.94764
   A14        1.92887   0.00194   0.00242   0.01501   0.01719   1.94606
   A15        1.92887   0.00194   0.00242   0.01501   0.01719   1.94606
   A16        1.87409  -0.00082  -0.00483  -0.01156  -0.01637   1.85772
   A17        1.87409  -0.00082  -0.00483  -0.01156  -0.01637   1.85772
   A18        1.90086  -0.00090  -0.00117   0.00510   0.00348   1.90434
    D1        3.14159   0.00000   0.00000   0.00000   0.00000   3.14159
    D2       -1.04040   0.00025   0.00087   0.00545   0.00632  -1.03407
    D3        1.04040  -0.00025  -0.00087  -0.00545  -0.00632   1.03407
    D4       -1.04957  -0.00004  -0.00033  -0.00066  -0.00099  -1.05056
    D5        1.05163   0.00022   0.00054   0.00479   0.00533   1.05696
    D6        3.13242  -0.00029  -0.00119  -0.00610  -0.00732   3.12510
    D7        1.04957   0.00004   0.00033   0.00066   0.00099   1.05056
    D8       -3.13242   0.00029   0.00119   0.00610   0.00732  -3.12510
    D9       -1.05163  -0.00022  -0.00054  -0.00479  -0.00533  -1.05696
   D10        3.14159   0.00000   0.00000   0.00000   0.00000   3.14159
   D11       -1.05271  -0.00071  -0.00081  -0.01305  -0.01398  -1.06669
   D12        1.05271   0.00071   0.00081   0.01305   0.01398   1.06669
   D13        1.02327   0.00000  -0.00302  -0.00132  -0.00432   1.01894
   D14        3.11215  -0.00071  -0.00383  -0.01437  -0.01830   3.09384
   D15       -1.06562   0.00071  -0.00222   0.01174   0.00966  -1.05595
   D16       -1.02327   0.00000   0.00302   0.00132   0.00432  -1.01894
   D17        1.06562  -0.00071   0.00222  -0.01174  -0.00966   1.05595
   D18       -3.11215   0.00071   0.00383   0.01437   0.01830  -3.09384
         Item               Value     Threshold  Converged?
 Maximum Force            0.004807     0.000450     NO 
 RMS     Force            0.001260     0.000300     NO 
 Maximum Displacement     0.024522     0.001800     NO 
 RMS     Displacement     0.006435     0.001200     NO 
 Predicted change in Energy=-2.192993D-04
 Lowest energy point so far.  Saving SCF results.
 GradGradGradGradGradGradGradGradGradGradGradGradGradGradGradGradGradGrad

 Leave Link  103 at Mon Oct 26 20:14:54 2015, MaxMem=  7340032000 cpu:         0.1
 (Enter /usr/local/gaussian/2009-D.01/g09/l202.exe)
                          Input orientation:                          
 ---------------------------------------------------------------------
 Center     Atomic      Atomic             Coordinates (Angstroms)
 Number     Number       Type             X           Y           Z
 ---------------------------------------------------------------------
      1          6           0       -0.361630   -1.873337    0.000000
      2          6           0       -0.374098   -0.339231    0.000000
      3          6           0       -1.805121    0.183642    0.000000
      4         17           0       -1.852981    1.987193    0.000000
      5          1           0        0.671791   -2.253684    0.000000
      6          1           0       -0.869716   -2.275655    0.892589
      7          1           0       -0.869716   -2.275655   -0.892589
      8          1           0        0.151061    0.050899    0.887942
      9          1           0        0.151061    0.050899   -0.887942
     10          1           0       -2.353826   -0.142535   -0.896739
     11          1           0       -2.353826   -0.142535    0.896739
 ---------------------------------------------------------------------
                    Distance matrix (angstroms):
                    1          2          3          4          5
     1  C    0.000000
     2  C    1.534157   0.000000
     3  C    2.512933   1.523557   0.000000
     4  Cl   4.138577   2.756691   1.804185   0.000000
     5  H    1.101192   2.181516   3.475004   4.935535   0.000000
     6  H    1.103053   2.189084   2.778460   4.464907   1.781416
     7  H    1.103053   2.189084   2.778460   4.464907   1.781416
     8  H    2.180362   1.102921   2.152374   2.924698   2.524025
     9  H    2.180362   1.102921   2.152374   2.924698   2.524025
    10  H    2.787232   2.182236   1.100731   2.364472   3.796768
    11  H    2.787232   2.182236   1.100731   2.364472   3.796768
                    6          7          8          9         10
     6  H    0.000000
     7  H    1.785179   0.000000
     8  H    2.540642   3.102440   0.000000
     9  H    3.102440   2.540642   1.775885   0.000000
    10  H    3.155071   2.598615   3.081714   2.512360   0.000000
    11  H    2.598615   3.155071   2.512360   3.081714   1.793477
                   11
    11  H    0.000000
 Symmetry turned off by external request.
 Stoichiometry    C3H7Cl
 Framework group  C1[X(C3H7Cl)]
 Deg. of freedom    27
 Full point group                 C1      NOp   1
 Rotational constants (GHZ):     25.6260920      2.3585488      2.2524890
 Leave Link  202 at Mon Oct 26 20:14:54 2015, MaxMem=  7340032000 cpu:         0.1
 (Enter /usr/local/gaussian/2009-D.01/g09/l301.exe)
 Standard basis: Aug-CC-pVDZ (5D, 7F)
 Ernie: Thresh=  0.10000D-02 Tol=  0.10000D-05 Strict=F.
 Ernie:  16 primitive shells out of 177 were deleted.
   159 basis functions,   287 primitive gaussians,   167 cartesian basis functions
    21 alpha electrons       21 beta electrons
       nuclear repulsion energy       157.8749125097 Hartrees.
 IExCor=    0 DFT=F Ex=HF Corr=None ExCW=0 ScaHFX=  1.000000
 ScaDFX=  1.000000  1.000000  1.000000  1.000000 ScalE2=  1.000000  1.000000
 IRadAn=      0 IRanWt=     -1 IRanGd=            0 ICorTp=0 IEmpDi=  4
 NAtoms=   11 NActive=   11 NUniq=   11 SFac= 1.00D+00 NAtFMM=   60 NAOKFM=F Big=F
 Integral buffers will be    131072 words long.
 Raffenetti 1 integral format.
 Two-electron integral symmetry is turned off.
 Leave Link  301 at Mon Oct 26 20:14:54 2015, MaxMem=  7340032000 cpu:         0.5
 (Enter /usr/local/gaussian/2009-D.01/g09/l302.exe)
 NPDir=0 NMtPBC=     1 NCelOv=     1 NCel=       1 NClECP=     1 NCelD=      1
         NCelK=      1 NCelE2=     1 NClLst=     1 CellRange=     0.0.
 One-electron integrals computed using PRISM.
 NBasis=   159 RedAO= T EigKep=  5.25D-05  NBF=   159
 NBsUse=   159 1.00D-06 EigRej= -1.00D+00 NBFU=   159
 Leave Link  302 at Mon Oct 26 20:14:54 2015, MaxMem=  7340032000 cpu:         1.8
 (Enter /usr/local/gaussian/2009-D.01/g09/l303.exe)
 DipDrv:  MaxL=1.
 Leave Link  303 at Mon Oct 26 20:14:54 2015, MaxMem=  7340032000 cpu:         0.3
 (Enter /usr/local/gaussian/2009-D.01/g09/l401.exe)
 Initial guess from the checkpoint file:  "CH3CH2CH2Cl_MP2_aug-cc-pVDZ_opt_freq_298K.chk"
 B after Tr=     0.004150   -0.005920    0.000000
         Rot=    1.000000    0.000000    0.000000    0.000524 Ang=   0.06 deg.
 Guess basis will be translated and rotated to current coordinates.
 JPrj=2 DoOrth=T DoCkMO=T.
 Generating alternative initial guess.
 ExpMin= 2.97D-02 ExpMax= 1.28D+05 ExpMxC= 1.24D+03 IAcc=3 IRadAn=         5 AccDes= 0.00D+00
 Harris functional with IExCor=  205 and IRadAn=       5 diagonalized for initial guess.
 HarFok:  IExCor=  205 AccDes= 0.00D+00 IRadAn=         5 IDoV= 1 UseB2=F ITyADJ=14
 ICtDFT=  3500011 ScaDFX=  1.000000  1.000000  1.000000  1.000000
 FoFCou: FMM=F IPFlag=           0 FMFlag=      100000 FMFlg1=           0
         NFxFlg=           0 DoJE=T BraDBF=F KetDBF=T FulRan=T
         wScrn=  0.000000 ICntrl=     500 IOpCl=  0 I1Cent=   200000004 NGrid=           0
         NMat0=    1 NMatS0=      1 NMatT0=    0 NMatD0=    1 NMtDS0=    0 NMtDT0=    0
 Symmetry not used in FoFCou.
 Harris En= -577.049132422235    
 Leave Link  401 at Mon Oct 26 20:14:55 2015, MaxMem=  7340032000 cpu:         5.7
 (Enter /usr/local/gaussian/2009-D.01/g09/l502.exe)
 Closed shell SCF:
 Using DIIS extrapolation, IDIIS=  1040.
 Two-electron integral symmetry not used.
 Keep R1 ints in memory in canonical form, NReq=83381537.
 IVT=      105245 IEndB=      105245 NGot=  7340032000 MDV=  7259021196
 LenX=  7259021196 LenY=  7258992866
 Requested convergence on RMS density matrix=1.00D-08 within 128 cycles.
 Requested convergence on MAX density matrix=1.00D-06.
 Requested convergence on             energy=1.00D-06.
 No special actions if energy rises.
 FoFCou: FMM=F IPFlag=           0 FMFlag=           0 FMFlg1=           0
         NFxFlg=           0 DoJE=F BraDBF=F KetDBF=F FulRan=T
         wScrn=  0.000000 ICntrl=     600 IOpCl=  0 I1Cent=           0 NGrid=           0
         NMat0=    1 NMatS0=  12720 NMatT0=    0 NMatD0=    1 NMtDS0=    0 NMtDT0=    0
 Symmetry not used in FoFCou.

 Cycle   1  Pass 1  IDiag  1:
 E= -577.203198984612    
 DIIS: error= 8.36D-04 at cycle   1 NSaved=   1.
 NSaved= 1 IEnMin= 1 EnMin= -577.203198984612     IErMin= 1 ErrMin= 8.36D-04
 ErrMax= 8.36D-04  0.00D+00 EMaxC= 1.00D-01 BMatC= 1.37D-04 BMatP= 1.37D-04
 IDIUse=3 WtCom= 9.92D-01 WtEn= 8.36D-03
 Coeff-Com:  0.100D+01
 Coeff-En:   0.100D+01
 Coeff:      0.100D+01
 Gap=     0.694 Goal=   None    Shift=    0.000
 RMSDP=2.26D-04 MaxDP=3.57D-03              OVMax= 3.29D-03

 Cycle   2  Pass 1  IDiag  1:
 E= -577.203350411783     Delta-E=       -0.000151427171 Rises=F Damp=F
 DIIS: error= 1.49D-04 at cycle   2 NSaved=   2.
 NSaved= 2 IEnMin= 2 EnMin= -577.203350411783     IErMin= 2 ErrMin= 1.49D-04
 ErrMax= 1.49D-04  0.00D+00 EMaxC= 1.00D-01 BMatC= 6.63D-06 BMatP= 1.37D-04
 IDIUse=3 WtCom= 9.99D-01 WtEn= 1.49D-03
 Coeff-Com: -0.124D+00 0.112D+01
 Coeff-En:   0.000D+00 0.100D+01
 Coeff:     -0.124D+00 0.112D+01
 Gap=     0.462 Goal=   None    Shift=    0.000
 RMSDP=5.25D-05 MaxDP=9.16D-04 DE=-1.51D-04 OVMax= 1.15D-03

 Cycle   3  Pass 1  IDiag  1:
 E= -577.203362497917     Delta-E=       -0.000012086134 Rises=F Damp=F
 DIIS: error= 8.78D-05 at cycle   3 NSaved=   3.
 NSaved= 3 IEnMin= 3 EnMin= -577.203362497917     IErMin= 3 ErrMin= 8.78D-05
 ErrMax= 8.78D-05  0.00D+00 EMaxC= 1.00D-01 BMatC= 6.87D-07 BMatP= 6.63D-06
 IDIUse=1 WtCom= 1.00D+00 WtEn= 0.00D+00
 Coeff-Com: -0.474D-01 0.126D+00 0.921D+00
 Coeff:     -0.474D-01 0.126D+00 0.921D+00
 Gap=     0.462 Goal=   None    Shift=    0.000
 RMSDP=1.36D-05 MaxDP=2.72D-04 DE=-1.21D-05 OVMax= 3.65D-04

 Cycle   4  Pass 1  IDiag  1:
 E= -577.203363728578     Delta-E=       -0.000001230662 Rises=F Damp=F
 DIIS: error= 1.80D-05 at cycle   4 NSaved=   4.
 NSaved= 4 IEnMin= 4 EnMin= -577.203363728578     IErMin= 4 ErrMin= 1.80D-05
 ErrMax= 1.80D-05  0.00D+00 EMaxC= 1.00D-01 BMatC= 7.73D-08 BMatP= 6.87D-07
 IDIUse=1 WtCom= 1.00D+00 WtEn= 0.00D+00
 Coeff-Com:  0.116D-01-0.113D+00 0.165D-01 0.108D+01
 Coeff:      0.116D-01-0.113D+00 0.165D-01 0.108D+01
 Gap=     0.462 Goal=   None    Shift=    0.000
 RMSDP=7.00D-06 MaxDP=1.85D-04 DE=-1.23D-06 OVMax= 1.95D-04

 Cycle   5  Pass 1  IDiag  1:
 E= -577.203363932036     Delta-E=       -0.000000203458 Rises=F Damp=F
 DIIS: error= 5.85D-06 at cycle   5 NSaved=   5.
 NSaved= 5 IEnMin= 5 EnMin= -577.203363932036     IErMin= 5 ErrMin= 5.85D-06
 ErrMax= 5.85D-06  0.00D+00 EMaxC= 1.00D-01 BMatC= 5.92D-09 BMatP= 7.73D-08
 IDIUse=1 WtCom= 1.00D+00 WtEn= 0.00D+00
 Coeff-Com:  0.124D-02 0.832D-02-0.686D-01-0.160D+00 0.122D+01
 Coeff:      0.124D-02 0.832D-02-0.686D-01-0.160D+00 0.122D+01
 Gap=     0.462 Goal=   None    Shift=    0.000
 RMSDP=1.88D-06 MaxDP=4.80D-05 DE=-2.03D-07 OVMax= 6.72D-05

 Cycle   6  Pass 1  IDiag  1:
 E= -577.203363952183     Delta-E=       -0.000000020146 Rises=F Damp=F
 DIIS: error= 1.82D-06 at cycle   6 NSaved=   6.
 NSaved= 6 IEnMin= 6 EnMin= -577.203363952183     IErMin= 6 ErrMin= 1.82D-06
[...]
     21  0.242924D+00
     22 -0.267923D-04  0.117838D+00
     23  0.403196D-03  0.463943D-01  0.874516D-01
     24  0.156628D-02  0.112031D+00  0.827332D-01  0.241416D+00
     25  0.308951D-03  0.671234D-02  0.549700D-02 -0.130396D-01  0.117838D+00
     26 -0.269051D-03  0.549700D-02  0.293628D-02 -0.928947D-02  0.463943D-01
     27  0.592880D-03  0.130396D-01  0.928947D-02 -0.198502D-01 -0.112031D+00
     28  0.390725D-03 -0.565677D-02  0.253773D-02  0.355367D-03  0.125995D-02
     29 -0.432338D-03  0.249918D-02 -0.449736D-03 -0.113801D-03 -0.398389D-03
     30  0.547537D-04  0.532154D-03  0.122469D-04  0.163303D-02 -0.102197D-03
     31 -0.435355D-04  0.125995D-02 -0.701244D-03 -0.146516D-03 -0.565677D-02
     32 -0.718093D-04 -0.398389D-03 -0.456566D-04  0.424208D-03  0.249918D-02
     33 -0.112732D-03  0.102197D-03 -0.330990D-03  0.698575D-03 -0.532154D-03
               26            27            28            29            30 
     26  0.874516D-01
     27 -0.827332D-01  0.241416D+00
     28 -0.701244D-03  0.146516D-03  0.124086D+00
     29 -0.456567D-04 -0.424208D-03  0.390323D-01  0.757373D-01
     30  0.330990D-03  0.698575D-03  0.122124D+00  0.677535D-01  0.251916D+00
     31  0.253773D-02 -0.355367D-03  0.793486D-02  0.467292D-02 -0.138816D-01
     32 -0.449736D-03  0.113801D-03  0.467292D-02  0.468686D-02 -0.740870D-02
     33 -0.122469D-04  0.163303D-02  0.138816D-01  0.740870D-02 -0.185684D-01
               31            32            33 
     31  0.124086D+00
     32  0.390323D-01  0.757373D-01
     33 -0.122124D+00 -0.677535D-01  0.251916D+00
 FormGI is forming the generalized inverse of G from B-inverse, IUseBI=4.
 Leave Link  716 at Mon Oct 26 20:19:50 2015, MaxMem=  7340032000 cpu:         0.7
 (Enter /usr/local/gaussian/2009-D.01/g09/l103.exe)

 GradGradGradGradGradGradGradGradGradGradGradGradGradGradGradGradGradGrad
 Berny optimization.
 Red2BG is reusing G-inverse.
 Internal  Forces:  Max     0.000070576 RMS     0.000019776
 Search for a local minimum.
 Step number   1 out of a maximum of    2
 All quantities printed in internal units (Hartrees-Bohrs-Radians)
 Second derivative matrix not updated -- analytic derivatives used.
 ITU=  0
     Eigenvalues ---    0.00213   0.00326   0.03547   0.03842   0.04439
     Eigenvalues ---    0.04481   0.04531   0.06150   0.06608   0.10133
     Eigenvalues ---    0.11893   0.12402   0.13313   0.14840   0.16196
     Eigenvalues ---    0.17567   0.21448   0.24679   0.30700   0.32295
     Eigenvalues ---    0.34176   0.34445   0.34605   0.34618   0.34798
     Eigenvalues ---    0.35008   0.35090
 Angle between quadratic step and forces=  36.63 degrees.
 Linear search not attempted -- first point.
 Iteration  1 RMS(Cart)=  0.00015549 RMS(Int)=  0.00000004
 Iteration  2 RMS(Cart)=  0.00000004 RMS(Int)=  0.00000002
 ITry= 1 IFail=0 DXMaxC= 3.49D-04 DCOld= 1.00D+10 DXMaxT= 3.00D-01 DXLimC= 3.00D+00 Rises=F
 Variable       Old X    -DE/DX   Delta X   Delta X   Delta X     New X
                                 (Linear)    (Quad)   (Total)
    R1        2.89985   0.00007   0.00000   0.00037   0.00037   2.90023
    R2        2.07972   0.00001   0.00000   0.00000   0.00000   2.07973
    R3        2.08281   0.00000   0.00000  -0.00002  -0.00002   2.08278
    R4        2.08281   0.00000   0.00000  -0.00002  -0.00002   2.08278
    R5        2.87748   0.00002   0.00000   0.00010   0.00010   2.87758
    R6        2.08245  -0.00001   0.00000  -0.00004  -0.00004   2.08240
    R7        2.08245  -0.00001   0.00000  -0.00004  -0.00004   2.08240
    R8        3.41919   0.00005   0.00000   0.00028   0.00028   3.41947
    R9        2.07756   0.00000   0.00000  -0.00001  -0.00001   2.07755
   R10        2.07756   0.00000   0.00000  -0.00001  -0.00001   2.07755
    A1        1.93350  -0.00004   0.00000  -0.00040  -0.00040   1.93311
    A2        1.94005  -0.00003   0.00000  -0.00023  -0.00023   1.93981
    A3        1.94005  -0.00003   0.00000  -0.00023  -0.00023   1.93981
    A4        1.88162   0.00004   0.00000   0.00030   0.00030   1.88193
    A5        1.88162   0.00004   0.00000   0.00030   0.00030   1.88193
    A6        1.88463   0.00003   0.00000   0.00031   0.00031   1.88494
    A7        1.93124   0.00001   0.00000  -0.00011  -0.00011   1.93113
    A8        1.92740   0.00000   0.00000  -0.00010  -0.00010   1.92730
    A9        1.92740   0.00000   0.00000  -0.00010  -0.00010   1.92730
   A10        1.90282  -0.00001   0.00000  -0.00011  -0.00011   1.90270
   A11        1.90282  -0.00001   0.00000  -0.00011  -0.00011   1.90270
   A12        1.87092   0.00002   0.00000   0.00054   0.00054   1.87146
   A13        1.94248  -0.00001   0.00000  -0.00011  -0.00011   1.94237
   A14        1.94913  -0.00002   0.00000  -0.00006  -0.00006   1.94906
   A15        1.94913  -0.00002   0.00000  -0.00006  -0.00006   1.94906
   A16        1.85553   0.00001   0.00000  -0.00005  -0.00005   1.85548
   A17        1.85553   0.00001   0.00000  -0.00005  -0.00005   1.85548
   A18        1.90735   0.00003   0.00000   0.00035   0.00035   1.90770
    D1        3.14159   0.00000   0.00000   0.00000   0.00000   3.14159
    D2       -1.03313  -0.00001   0.00000  -0.00027  -0.00027  -1.03341
    D3        1.03313   0.00001   0.00000   0.00027   0.00027   1.03341
    D4       -1.04992   0.00000   0.00000  -0.00004  -0.00004  -1.04996
    D5        1.05854  -0.00001   0.00000  -0.00031  -0.00031   1.05823
    D6        3.12480   0.00001   0.00000   0.00024   0.00024   3.12504
    D7        1.04992   0.00000   0.00000   0.00004   0.00004   1.04996
    D8       -3.12480  -0.00001   0.00000  -0.00024  -0.00024  -3.12504
    D9       -1.05854   0.00001   0.00000   0.00031   0.00031  -1.05823
   D10        3.14159   0.00000   0.00000   0.00000   0.00000   3.14159
   D11       -1.07085  -0.00001   0.00000  -0.00018  -0.00018  -1.07104
   D12        1.07085   0.00001   0.00000   0.00018   0.00018   1.07104
   D13        1.01859   0.00001   0.00000   0.00026   0.00026   1.01885
   D14        3.08933   0.00000   0.00000   0.00008   0.00008   3.08941
   D15       -1.05215   0.00001   0.00000   0.00044   0.00044  -1.05171
   D16       -1.01859  -0.00001   0.00000  -0.00026  -0.00026  -1.01885
   D17        1.05215  -0.00001   0.00000  -0.00044  -0.00044   1.05171
   D18       -3.08933   0.00000   0.00000  -0.00008  -0.00008  -3.08941
         Item               Value     Threshold  Converged?
 Maximum Force            0.000071     0.000450     YES
 RMS     Force            0.000020     0.000300     YES
 Maximum Displacement     0.000349     0.001800     YES
 RMS     Displacement     0.000155     0.001200     YES
 Predicted change in Energy=-8.236660D-08
 Optimization completed.
    -- Stationary point found.
                           ----------------------------
                           !   Optimized Parameters   !
                           ! (Angstroms and Degrees)  !
 --------------------------                            --------------------------
 ! Name  Definition              Value          Derivative Info.                !
 --------------------------------------------------------------------------------
 ! R1    R(1,2)                  1.5345         -DE/DX =    0.0001              !
 ! R2    R(1,5)                  1.1005         -DE/DX =    0.0                 !
 ! R3    R(1,6)                  1.1022         -DE/DX =    0.0                 !
 ! R4    R(1,7)                  1.1022         -DE/DX =    0.0                 !
 ! R5    R(2,3)                  1.5227         -DE/DX =    0.0                 !
 ! R6    R(2,8)                  1.102          -DE/DX =    0.0                 !
 ! R7    R(2,9)                  1.102          -DE/DX =    0.0                 !
 ! R8    R(3,4)                  1.8094         -DE/DX =    0.0                 !
 ! R9    R(3,10)                 1.0994         -DE/DX =    0.0                 !
 ! R10   R(3,11)                 1.0994         -DE/DX =    0.0                 !
 ! A1    A(2,1,5)              110.7815         -DE/DX =    0.0                 !
 ! A2    A(2,1,6)              111.1564         -DE/DX =    0.0                 !
 ! A3    A(2,1,7)              111.1564         -DE/DX =    0.0                 !
 ! A4    A(5,1,6)              107.8091         -DE/DX =    0.0                 !
 ! A5    A(5,1,7)              107.8091         -DE/DX =    0.0                 !
 ! A6    A(6,1,7)              107.9815         -DE/DX =    0.0                 !
 ! A7    A(1,2,3)              110.6519         -DE/DX =    0.0                 !
 ! A8    A(1,2,8)              110.4317         -DE/DX =    0.0                 !
 ! A9    A(1,2,9)              110.4317         -DE/DX =    0.0                 !
 ! A10   A(3,2,8)              109.0233         -DE/DX =    0.0                 !
 ! A11   A(3,2,9)              109.0233         -DE/DX =    0.0                 !
 ! A12   A(8,2,9)              107.1959         -DE/DX =    0.0                 !
 ! A13   A(2,3,4)              111.2961         -DE/DX =    0.0                 !
 ! A14   A(2,3,10)             111.6767         -DE/DX =    0.0                 !
 ! A15   A(2,3,11)             111.6767         -DE/DX =    0.0                 !
 ! A16   A(4,3,10)             106.3143         -DE/DX =    0.0                 !
 ! A17   A(4,3,11)             106.3143         -DE/DX =    0.0                 !
 ! A18   A(10,3,11)            109.2831         -DE/DX =    0.0                 !
 ! D1    D(5,1,2,3)            180.0            -DE/DX =    0.0                 !
 ! D2    D(5,1,2,8)            -59.1941         -DE/DX =    0.0                 !
 ! D3    D(5,1,2,9)             59.1941         -DE/DX =    0.0                 !
 ! D4    D(6,1,2,3)            -60.1562         -DE/DX =    0.0                 !
 ! D5    D(6,1,2,8)             60.6497         -DE/DX =    0.0                 !
 ! D6    D(6,1,2,9)            179.0379         -DE/DX =    0.0                 !
 ! D7    D(7,1,2,3)             60.1562         -DE/DX =    0.0                 !
 ! D8    D(7,1,2,8)           -179.0379         -DE/DX =    0.0                 !
 ! D9    D(7,1,2,9)            -60.6497         -DE/DX =    0.0                 !
 ! D10   D(1,2,3,4)            180.0            -DE/DX =    0.0                 !
 ! D11   D(1,2,3,10)           -61.3553         -DE/DX =    0.0                 !
 ! D12   D(1,2,3,11)            61.3553         -DE/DX =    0.0                 !
 ! D13   D(8,2,3,4)             58.3609         -DE/DX =    0.0                 !
 ! D14   D(8,2,3,10)           177.0056         -DE/DX =    0.0                 !
 ! D15   D(8,2,3,11)           -60.2838         -DE/DX =    0.0                 !
 ! D16   D(9,2,3,4)            -58.3609         -DE/DX =    0.0                 !
 ! D17   D(9,2,3,10)            60.2838         -DE/DX =    0.0                 !
 ! D18   D(9,2,3,11)          -177.0056         -DE/DX =    0.0                 !
 --------------------------------------------------------------------------------
 GradGradGradGradGradGradGradGradGradGradGradGradGradGradGradGradGradGrad

 Leave Link  103 at Mon Oct 26 20:19:51 2015, MaxMem=  7340032000 cpu:         3.3
 (Enter /usr/local/gaussian/2009-D.01/g09/l9999.exe)
 1\1\ WCSS.PL-BEM-WN0811\Freq\RMP2-FC\Aug-CC-pVDZ\C3H7Cl1\ROOT\26-Oct-2
 015\0\\#P Geom=AllCheck Guess=TCheck SCRF=Check GenChk RMP2(FC)/Aug-CC
 -pVDZ Freq\\CH3CH2CH2Cl - optimization and frequencies\\0,1\C,-0.35955
 57874,-1.8743581458,-0.0000000003\C,-0.3764921288,-0.3399148319,0.0000
 000021\C,-1.80718271,0.1813667315,0.\Cl,-1.8474930686,1.9902759856,-0.
 0000000051\H,0.6736330268,-2.2534561863,-0.0000000067\H,-0.8666487644,
 -2.2777711749,0.8915732036\H,-0.866648773,-2.2777711723,-0.8915732007\
 H,0.1480854026,0.0505907634,0.8869562345\H,0.1480854061,0.0505907654,-
 0.8869562274\H,-2.3563913005,-0.1397763689,-0.8966097883\H,-2.35639130
 27,-0.1397763659,0.8966097884\\Version=ES64L-G09RevD.01\HF=-577.203495
 \MP2=-577.8049266\RMSD=1.219e-09\RMSF=4.225e-05\ZeroPoint=0.0955023\Th
 ermal=0.1008444\Dipole=0.1436613,-0.8758014,0.\DipoleDeriv=0.0478515,0
 .1107992,0.,0.0168716,0.0448582,0.,0.,0.,0.1258751,0.0644292,-0.041085
 1,0.,0.0422127,-0.0118991,0.,0.,0.,0.1121946,0.1677904,-0.0862411,0.,-
 0.1458187,0.8042827,0.,0.,0.,0.1553036,-0.2153117,0.059952,0.,0.134229
 ,-0.6211893,0.,0.,0.,-0.1833116,-0.1064868,0.0953846,0.,0.0611253,-0.0
 376719,0.,0.,0.,0.0692193,0.016078,-0.0565052,0.0817344,-0.0126737,0.0
 005797,0.0229173,0.0746776,0.0714284,-0.0717765,0.016078,-0.0565052,-0
 .0817344,-0.0126737,0.0005797,-0.0229173,-0.0746776,-0.0714284,-0.0717
 765,-0.0029745,-0.0024626,-0.0455311,-0.0269372,-0.0095963,-0.0553873,
 -0.0727344,-0.0552499,-0.0502968,-0.0029745,-0.0024626,0.0455311,-0.02
 69372,-0.0095963,0.0553873,0.0727344,0.0552499,-0.0502968,0.0077602,-0
 .010437,-0.0381655,-0.0146991,-0.0801737,-0.0451234,-0.0666292,-0.0526
 687,-0.0175671,0.0077602,-0.010437,0.0381655,-0.0146991,-0.0801737,0.0
 451234,0.0666292,0.0526687,-0.0175671\Polar=50.3313217,-5.1510579,65.9
 560165,0.,0.,45.9074037\PG=CS [SG(C3H1Cl1),X(H6)]\NImag=0\\0.57886912,
 -0.00274366,0.47840765,0.,0.,0.57343023,-0.07735662,-0.00291165,0.,0.5
 2658482,-0.00135945,-0.20729420,0.,0.04402057,0.49134939,0.,0.,-0.0783
 7215,0.,0.,0.61106852,0.00023146,0.00587094,0.,-0.21135637,0.03566709,
 0.,0.50850743,0.02907584,-0.01888269,0.,0.03871520,-0.07237278,0.,0.03
 636158,0.34697459,0.,0.,-0.00070179,0.,0.,-0.08134398,0.,0.,0.60092380
 ,-0.00461313,0.00082842,0.,0.00252173,0.02805506,0.,-0.03221970,-0.004
 89512,0.,0.02768027,0.00791302,0.00108615,0.,-0.00210763,-0.03097963,0
 .,-0.00562135,-0.13577967,0.,-0.00390136,0.21421750,0.,0.,0.00107140,0
 .,0.,0.00036897,0.,0.,-0.03487816,0.,0.,0.02287109,-0.29282916,0.08795
 343,0.,0.00176464,-0.00322348,0.,0.00081410,0.00014384,0.,0.00007532,-
 0.00004619,0.,0.31428659,0.08634444,-0.07349449,0.,0.03327464,-0.01119
 998,0.,-0.00284016,-0.00514277,0.,0.00154116,-0.00235632,0.,-0.0948231
 4,0.08330372,0.,0.,-0.04470104,0.,0.,-0.00139685,0.,0.,0.00019895,0.,0
 .,0.00036958,0.,0.,0.04512345,-0.10377490,-0.04447246,0.10178189,-0.00
 073451,0.00080940,-0.00078656,0.00073658,0.00064451,-0.00103425,-0.000
 07596,-0.00013853,0.00002436,-0.01258717,-0.01147495,0.02527918,0.1089
 0536,-0.04416427,-0.07844490,0.07716041,-0.01549632,-0.01226509,0.0284
 4496,-0.00171119,0.00076046,0.00109992,0.00022238,0.00058116,-0.000552
 19,0.00486326,0.00291989,-0.00960561,0.04862973,0.08885725,0.10207451,
 0.07832343,-0.22689683,-0.00089875,-0.00162038,0.00102517,0.00010833,-
 0.00022822,0.00004058,-0.00016369,-0.00008967,0.00010542,-0.00199090,-
 0.00050760,0.00007969,-0.11184314,-0.08579042,0.24292360,-0.10377490,-
 0.04447246,-0.10178189,-0.00073451,0.00080940,0.00078656,0.00073658,0.
 00064451,0.00103425,-0.00007596,-0.00013853,-0.00002436,-0.01258717,-0
 .01147495,-0.02527918,0.00674747,0.00617626,0.01334300,0.10890536,-0.0
 4416427,-0.07844490,-0.07716041,-0.01549632,-0.01226509,-0.02844496,-0
 .00171119,0.00076046,-0.00109992,0.00022238,0.00058116,0.00055219,0.00
 486326,0.00291989,0.00960561,0.00617626,0.00315090,0.00954286,0.048629
 73,0.08885725,-0.10207451,-0.07832343,-0.22689683,0.00089875,0.0016203
 8,0.00102517,-0.00010833,0.00022822,0.00004058,0.00016369,0.00008967,0
 .00010542,0.00199090,0.00050760,0.00007969,-0.01334300,-0.00954286,-0.
 01937882,0.11184314,0.08579042,0.24292360,0.00070789,0.00139365,0.0020
 3249,-0.10506818,-0.04399915,-0.10058713,-0.01811828,-0.01085747,-0.02
 799856,0.00157198,-0.00078033,0.00076556,0.00024254,-0.00014015,0.0004
 1807,-0.00022261,-0.00024602,-0.00030895,0.00073295,0.00063737,-0.0000
 2679,0.11783817,-0.01544391,-0.01294814,-0.02720951,-0.04600512,-0.076
 18012,-0.07580199,0.00779266,0.00174769,0.01013566,-0.00019162,0.00141
 822,0.00047267,0.00023191,0.00143972,0.00002694,-0.00029377,0.00142064
 ,0.00026905,0.00018206,-0.00679050,0.00040320,0.04639430,0.08745160,0.
 00101538,0.00205698,0.00137089,-0.10291674,-0.07557859,-0.22756535,0.0
 0159407,-0.00081653,-0.00010301,0.00041684,0.00069505,0.00029331,0.000
 18153,-0.00034873,-0.00005211,0.00010771,-0.00026276,0.00059288,0.0004
 0068,0.00050039,0.00156628,0.11203132,0.08273325,0.24141568,0.00070789
 ,0.00139365,-0.00203249,-0.10506818,-0.04399915,0.10058713,-0.01811828
 ,-0.01085747,0.02799856,0.00157198,-0.00078033,-0.00076556,0.00024254,
 -0.00014015,-0.00041807,0.00073295,0.00063737,0.00002679,-0.00022261,-
 0.00024602,0.00030895,0.00671234,0.00549700,-0.01303963,0.11783818,-0.
 01544391,-0.01294814,0.02720951,-0.04600512,-0.07618012,0.07580199,0.0
 0779266,0.00174769,-0.01013566,-0.00019162,0.00141822,-0.00047267,0.00
 023191,0.00143972,-0.00002694,0.00018206,-0.00679050,-0.00040320,-0.00
 029377,0.00142064,-0.00026905,0.00549700,0.00293628,-0.00928947,0.0463
 9430,0.08745160,-0.00101538,-0.00205698,0.00137089,0.10291674,0.075578
 59,-0.22756535,-0.00159407,0.00081653,-0.00010301,-0.00041684,-0.00069
 505,0.00029331,-0.00018153,0.00034873,-0.00005211,-0.00040068,-0.00050
 039,0.00156628,-0.00010771,0.00026276,0.00059288,0.01303963,0.00928947
 ,-0.01985017,-0.11203132,-0.08273325,0.24141568,0.00091616,-0.00141993
 ,-0.00017620,-0.01527640,-0.00839015,-0.02660636,-0.11560677,-0.039487
 71,-0.11237749,0.00178173,0.00280061,0.00175256,0.00028889,-0.00013337
 ,0.00046585,-0.00000746,0.00020285,0.00004354,0.00028024,0.00088594,0.
 00039072,-0.00565677,0.00253773,0.00035537,0.00125995,-0.00070124,0.00
 014652,0.12408556,-0.00000691,0.00148183,0.00061970,0.00600587,0.00369
 381,0.00890540,-0.04080053,-0.05990649,-0.06445817,-0.01084485,-0.0250
 9340,-0.01931383,-0.00009740,0.00008530,-0.00001679,-0.00006418,-0.000
 05133,0.00007181,0.00000193,-0.00013848,-0.00043234,0.00249918,-0.0004
 4974,-0.00011380,-0.00039839,-0.00004566,-0.00042421,0.03903235,0.0757
 3729,0.00005570,0.00017864,0.00016261,0.00227945,-0.00052945,0.0013779
 2,-0.11289530,-0.06505418,-0.24203698,0.00200537,0.00409934,0.00469983
 ,0.00017754,0.00023010,0.00017537,-0.00004023,-0.00003179,-0.00011273,
 -0.00025473,0.00041927,0.00005475,0.00053215,0.00001225,0.00163303,-0.
 00010220,0.00033099,0.00069858,0.12212387,0.06775353,0.25191604,0.0009
 1616,-0.00141993,0.00017620,-0.01527640,-0.00839015,0.02660636,-0.1156
 0677,-0.03948771,0.11237749,0.00178173,0.00280061,-0.00175256,0.000288
 89,-0.00013337,-0.00046585,0.00028024,0.00088594,-0.00039072,-0.000007
 46,0.00020285,-0.00004354,0.00125995,-0.00070124,-0.00014652,-0.005656
 77,0.00253773,-0.00035537,0.00793486,0.00467292,-0.01388161,0.12408556
 ,-0.00000691,0.00148183,-0.00061970,0.00600587,0.00369381,-0.00890540,
 -0.04080053,-0.05990649,0.06445817,-0.01084485,-0.02509340,0.01931383,
 -0.00009740,0.00008530,0.00001679,0.00000193,-0.00013848,0.00043234,-0
 .00006418,-0.00005133,-0.00007181,-0.00039839,-0.00004566,0.00042421,0
 .00249918,-0.00044974,0.00011380,0.00467292,0.00468686,-0.00740870,0.0
 3903235,0.07573729,-0.00005569,-0.00017864,0.00016261,-0.00227945,0.00
 052945,0.00137792,0.11289530,0.06505418,-0.24203698,-0.00200537,-0.004
 09934,0.00469983,-0.00017754,-0.00023010,0.00017537,0.00025473,-0.0004
 1927,0.00005475,0.00004023,0.00003179,-0.00011273,0.00010220,-0.000330
 99,0.00069858,-0.00053215,-0.00001225,0.00163303,0.01388161,0.00740870
 ,-0.01856842,-0.12212387,-0.06775353,0.25191604\\0.00001709,0.00016018
 ,0.,-0.00008926,-0.00009768,0.,0.00005723,0.00004840,0.,-0.00000383,-0
 .00004645,0.,-0.00001900,-0.00003504,0.,0.00000567,-0.00002723,-0.0000
 0901,0.00000567,-0.00002723,0.00000901,0.00003167,0.00001683,-0.000017
 41,0.00003167,0.00001683,0.00001741,-0.00001845,-0.00000431,0.00001497
 ,-0.00001845,-0.00000431,-0.00001497\\\@


 IN SO FAR AS QUANTUM MECHANICS IS CORRECT, CHEMICAL 
 QUESTIONS ARE PROBLEMS IN APPLIED MATHEMATICS.

                    -- EYRING, WALTER, & KIMBALL, 1944
 Job cpu time:       0 days  0 hours 48 minutes 33.7 seconds.
 File lengths (MBytes):  RWF=   3388 Int=      0 D2E=      0 Chk=      4 Scr=      1
 Normal termination of Gaussian 09 at Mon Oct 26 20:19:51 2015.
